PROCAR lm decomposed + phase
# of k-points:     1        # of bands: 1         # of ions: 3

 k-point    1 :    0.00000000 0.00000000 0.00000000     weight = 0.33333333

band   1 # energy  -15.0000000000 # occ.  1.00000000

ion       s      py      pz      px     dxy     dyz     dz2     dxz     dx2     tot
  1  0.0000  0.0001  0.0002  0.0003  0.0004  0.0005  0.0006  0.0007  0.0008  0.0036
  2  0.0010  0.0011  0.0012  0.0013  0.0014  0.0015  0.0016  0.0017  0.0018  0.0126
  3  0.0020  0.0021  0.0022  0.0023  0.0024  0.0025  0.0026  0.0027  0.0028  0.0216
tot  0.0020  0.0021  0.0022  0.0023  0.0024  0.0025  0.0026  0.0027  0.0028  0.0216 
ion       s      py      pz      px     dxy     dyz     dz2     dxz     dx2
  1  0.0000  0.0000  0.0000  0.0000  0.0000  0.0000  0.0000  0.0000  0.0000
  1  0.0000  0.0000  0.0000  0.0000  0.0000  0.0000  0.0000  0.0000  0.0000
  2  0.0000  0.0000  0.0000  0.0000  0.0000  0.0000  0.0000  0.0000  0.0000
  2  0.0000  0.0000  0.0000  0.0000  0.0000  0.0000  0.0000  0.0000  0.0000
  3  0.0000  0.0000  0.0000  0.0000  0.0000  0.0000  0.0000  0.0000  0.0000
  3  0.0000  0.0000  0.0000  0.0000  0.0000  0.0000  0.0000  0.0000  0.0000

