CoMonolayer                             
   1.00000000000000     
     2.508300    0.000000    0.000000
     1.254150    2.172252    0.000000
     0.000000    0.000000   20.000000
   Co
     1
Direct
  0.000000  0.000000  0.500000
 
   4   4  6
 0.24554909586E+01 0.19605678855E+01 0.87421310719E+00 -.76001653512E-02 -.22041103878E+00
 0.93388537378E-01 0.50404287898E+00 0.71298138496E+00 0.67848625721E+00 0.50662871396E+00
 0.32063700618E+00 0.19572399317E+00 0.15395331907E+00 0.19572399317E+00 0.32063700618E+00
 0.50662871396E+00 0.67848625721E+00 0.71298138496E+00 0.50404287898E+00 0.93388537378E-01
 -.22041103878E+00 -.76001653512E-02 0.87421310719E+00 0.19605678855E+01 0.19605678855E+01
 0.14966016587E+01 0.65040622665E+00 0.76726802869E-02 -.13917728816E+00 0.87385654443E-01
 0.38954949071E+00 0.55627545567E+00 0.55058723066E+00 0.45040380506E+00 0.34225056965E+00
 0.25917981304E+00 0.20352193833E+00 0.19560010618E+00 0.26535789012E+00 0.40415143626E+00
 0.54691838561E+00 0.59099023371E+00 0.44310039415E+00 0.13018185577E+00 -.95822833891E-01
 0.11825066149E+00 0.84856754832E+00 0.16691340770E+01 0.87421310719E+00 0.65040622665E+00
 0.34559225851E+00 0.12733758292E+00 0.57405070012E-01 0.10806181734E+00 0.20665169833E+00
 0.27752384757E+00 0.29435556696E+00 0.29095611639E+00 0.29974438451E+00 0.30490479102E+00
 0.28045884181E+00 0.24068379711E+00 0.22033531750E+00 0.23064167820E+00 0.25695072695E+00
 0.27070567627E+00 0.23563595060E+00 0.15438521967E+00 0.12403567610E+00 0.27066367659E+00
 0.57945937956E+00 0.84856754832E+00 -.76001653512E-02 0.76726802869E-02 0.12733758292E+00
 0.21155014846E+00 0.19132864700E+00 0.12660565784E+00 0.95527780858E-01 0.10428235588E+00
 0.12537880910E+00 0.15636872380E+00 0.20368877056E+00 0.25059827428E+00 0.27205346902E+00
 0.25686650818E+00 0.20286333603E+00 0.11801076823E+00 0.35187333649E-01 0.80142006417E-04
 0.36449357350E-01 0.13383829597E+00 0.25241380446E+00 0.32116818576E+00 0.27066367659E+00
 0.11825066149E+00 
augmentation occupancies   1 138
  0.3599494E+01 -0.1127125E-16 -0.4424560E-24  0.1737584E+00  0.4162339E-24
  0.1152396E-15  0.0000000E+00  0.0000000E+00  0.0000000E+00  0.0000000E+00
  0.0000000E+00  0.0000000E+00  0.0000000E+00  0.0000000E+00  0.0000000E+00
 -0.2582066E+01  0.9051504E-17  0.2925092E-23 -0.4085346E-01  0.1504526E-23
 -0.1098465E-15  0.0000000E+00  0.0000000E+00  0.0000000E+00  0.0000000E+00
  0.0000000E+00  0.0000000E+00  0.0000000E+00  0.0000000E+00  0.0000000E+00
  0.8068889E-19  0.4054971E-23  0.4168469E+00 -0.3553800E-23 -0.2165677E-16
  0.8307774E-19  0.5733288E-24  0.2409282E-01  0.2747161E-23 -0.7712097E-18
  0.0000000E+00  0.0000000E+00  0.0000000E+00  0.0000000E+00  0.0000000E+00
  0.0000000E+00  0.0000000E+00  0.0000000E+00  0.0000000E+00  0.0000000E+00
  0.0000000E+00  0.0000000E+00  0.0000000E+00  0.0000000E+00  0.0000000E+00
  0.0000000E+00  0.0000000E+00  0.0000000E+00  0.0000000E+00  0.0000000E+00
  0.1156472E+01 -0.3186390E-17  0.3107948E-24 -0.1549230E+00  0.1899420E-24
  0.7693755E-16  0.0000000E+00  0.0000000E+00  0.0000000E+00  0.0000000E+00
  0.0000000E+00  0.0000000E+00  0.0000000E+00  0.0000000E+00  0.0000000E+00
  0.3461381E-17 -0.9199669E-24 -0.5144691E+00 -0.9480776E-24  0.3450405E-16
 -0.9011912E-19  0.8046333E-25  0.2120294E-01  0.5042715E-24 -0.2168908E-17
  0.0000000E+00  0.0000000E+00  0.0000000E+00  0.0000000E+00  0.0000000E+00
  0.0000000E+00  0.0000000E+00  0.0000000E+00  0.0000000E+00  0.0000000E+00
  0.0000000E+00  0.0000000E+00  0.0000000E+00  0.0000000E+00  0.0000000E+00
  0.0000000E+00  0.0000000E+00  0.0000000E+00  0.0000000E+00  0.0000000E+00
  0.4944726E+00 -0.5696541E-01  0.0000000E+00  0.0000000E+00  0.0000000E+00
  0.0000000E+00  0.0000000E+00  0.0000000E+00  0.4710419E-02  0.0000000E+00
  0.0000000E+00  0.0000000E+00  0.0000000E+00  0.0000000E+00  0.0000000E+00
  0.1343137E+00 -0.2966463E-19  0.2010356E-24 -0.4105005E-01 -0.4359538E-24
  0.9797992E-17 -0.1964275E-01 -0.7474578E-20  0.4205587E-24  0.6280978E-02
 -0.3286001E-24 -0.1661730E-17  0.8055687E-03  0.1637553E-21 -0.2283446E-25
 -0.2764412E-03  0.4722580E-26  0.6466415E-19
augmentation occupancies (imaginary part)   1 138
  0.4272955E-17  0.6400196E-24 -0.1472681E-23  0.2275233E-18 -0.1792768E-23
 -0.3034124E-24  0.0000000E+00  0.0000000E+00  0.0000000E+00  0.0000000E+00
  0.0000000E+00  0.0000000E+00  0.0000000E+00  0.0000000E+00  0.0000000E+00
 -0.1872216E-08 -0.7842402E-23 -0.4374365E-23 -0.4118871E-08 -0.3966189E-24
 -0.2123659E-23  0.0000000E+00  0.0000000E+00  0.0000000E+00  0.0000000E+00
  0.0000000E+00  0.0000000E+00  0.0000000E+00  0.0000000E+00  0.0000000E+00
 -0.2959050E-24 -0.4111888E-23  0.2189386E-07 -0.1184044E-24 -0.6298930E-23
  0.2088909E-24  0.4676467E-24 -0.1356566E-07 -0.1263425E-23  0.2485480E-23
  0.0000000E+00  0.0000000E+00  0.0000000E+00  0.0000000E+00  0.0000000E+00
  0.0000000E+00  0.0000000E+00  0.0000000E+00  0.0000000E+00  0.0000000E+00
  0.0000000E+00  0.0000000E+00  0.0000000E+00  0.0000000E+00  0.0000000E+00
  0.0000000E+00  0.0000000E+00  0.0000000E+00  0.0000000E+00  0.0000000E+00
 -0.7008929E-18 -0.7181525E-24 -0.3267749E-24  0.2387780E-18  0.6249802E-24
  0.8253730E-24  0.0000000E+00  0.0000000E+00  0.0000000E+00  0.0000000E+00
  0.0000000E+00  0.0000000E+00  0.0000000E+00  0.0000000E+00  0.0000000E+00
 -0.3352182E-24  0.2359299E-23 -0.7600308E-08 -0.3250911E-24  0.3682048E-23
  0.1859926E-24 -0.1976715E-24  0.5665494E-08  0.1487762E-23 -0.5100370E-24
  0.0000000E+00  0.0000000E+00  0.0000000E+00  0.0000000E+00  0.0000000E+00
  0.0000000E+00  0.0000000E+00  0.0000000E+00  0.0000000E+00  0.0000000E+00
  0.0000000E+00  0.0000000E+00  0.0000000E+00  0.0000000E+00  0.0000000E+00
  0.0000000E+00  0.0000000E+00  0.0000000E+00  0.0000000E+00  0.0000000E+00
 -0.4101996E-18 -0.3771781E-08  0.0000000E+00  0.0000000E+00  0.0000000E+00
  0.0000000E+00  0.0000000E+00  0.0000000E+00  0.3897446E-19  0.0000000E+00
  0.0000000E+00  0.0000000E+00  0.0000000E+00  0.0000000E+00  0.0000000E+00
 -0.9205345E-19  0.3310976E-24 -0.3977873E-24 -0.2569877E-19  0.4052958E-25
 -0.1950054E-25  0.4952804E-09 -0.2587978E-27  0.5572273E-24  0.6328143E-10
  0.5849736E-25 -0.3519179E-25 -0.3820553E-21  0.5019846E-26 -0.2599542E-25
  0.2607011E-21  0.6105440E-25 -0.5065014E-26
  0.100000000000E+01
   4   4  6
 0.25758957165E+01 0.20924729040E+01 0.10326706228E+01 0.17493075221E+00 -.29905678438E-01
 0.27535888360E+00 0.67175852716E+00 0.87246506291E+00 0.83961067526E+00 0.67477244374E+00
 0.49474532759E+00 0.37225320729E+00 0.33085184233E+00 0.37225320729E+00 0.49474532759E+00
 0.67477244374E+00 0.83961067526E+00 0.87246506291E+00 0.67175852716E+00 0.27535888360E+00
 -.29905678438E-01 0.17493075221E+00 0.10326706228E+01 0.20924729040E+01 0.20924729040E+01
 0.16392158078E+01 0.81459473320E+00 0.19024784023E+00 0.48695573236E-01 0.26816335710E+00
 0.55955695854E+00 0.72036097910E+00 0.71576615480E+00 0.62006406623E+00 0.51551118469E+00
 0.43409251611E+00 0.37942566341E+00 0.37212080309E+00 0.44026331460E+00 0.57396286349E+00
 0.71082272588E+00 0.75391907474E+00 0.61338140707E+00 0.31220911828E+00 0.92339648031E-01
 0.29867644777E+00 0.10088519587E+01 0.18086493522E+01 0.10326706228E+01 0.81459473320E+00
 0.51915516601E+00 0.30804546876E+00 0.23957397827E+00 0.28697154286E+00 0.38127988464E+00
 0.44986864869E+00 0.46676142712E+00 0.46422497199E+00 0.47341433201E+00 0.47865399520E+00
 0.45468589997E+00 0.41566592973E+00 0.39527888462E+00 0.40419271996E+00 0.42898420282E+00
 0.44339529354E+00 0.41208667361E+00 0.33550525322E+00 0.30650028020E+00 0.44838230651E+00
 0.74796147027E+00 0.10088519587E+01 0.17493075221E+00 0.19024784023E+00 0.30804546876E+00
 0.38994688797E+00 0.36844778977E+00 0.30383921179E+00 0.27347245450E+00 0.28249197555E+00
 0.30301019637E+00 0.33293549888E+00 0.37924304757E+00 0.42540481968E+00 0.44634921920E+00
 0.43106218354E+00 0.37786348122E+00 0.29502317630E+00 0.21488032082E+00 0.18175938245E+00
 0.21816685751E+00 0.31363030878E+00 0.42978676473E+00 0.49756092620E+00 0.44838230651E+00
 0.14042020001E+01  
augmentation occupancies   1 138
  0.2647570E+01 -0.1126863E-16  0.1240789E-23  0.8903171E-01  0.3303954E-23
  0.3389151E-15  0.0000000E+00  0.0000000E+00  0.0000000E+00  0.0000000E+00
  0.0000000E+00  0.0000000E+00  0.0000000E+00  0.0000000E+00  0.0000000E+00
 -0.2332900E+01  0.3504732E-17  0.5096016E-24 -0.6660161E-01  0.2681885E-23
 -0.1709460E-16  0.0000000E+00  0.0000000E+00  0.0000000E+00  0.0000000E+00
  0.0000000E+00  0.0000000E+00  0.0000000E+00  0.0000000E+00  0.0000000E+00
  0.5118329E-18  0.6078773E-23 -0.1874563E-02  0.2559012E-23  0.3349225E-17
  0.2199103E-18  0.7786219E-25  0.5618216E-01  0.1756536E-23 -0.3276834E-17
  0.0000000E+00  0.0000000E+00  0.0000000E+00  0.0000000E+00  0.0000000E+00
  0.0000000E+00  0.0000000E+00  0.0000000E+00  0.0000000E+00  0.0000000E+00
  0.0000000E+00  0.0000000E+00  0.0000000E+00  0.0000000E+00  0.0000000E+00
  0.0000000E+00  0.0000000E+00  0.0000000E+00  0.0000000E+00  0.0000000E+00
  0.2919478E+00 -0.4807805E-17 -0.9624702E-24  0.4242768E-01 -0.1112395E-23
  0.7934564E-17  0.0000000E+00  0.0000000E+00  0.0000000E+00  0.0000000E+00
  0.0000000E+00  0.0000000E+00  0.0000000E+00  0.0000000E+00  0.0000000E+00
  0.9184420E-18 -0.1184372E-23  0.4864198E-01 -0.4077137E-23 -0.7325258E-17
  0.1082932E-19  0.8045019E-24 -0.3422731E-01  0.2187807E-24  0.2532422E-17
  0.0000000E+00  0.0000000E+00  0.0000000E+00  0.0000000E+00  0.0000000E+00
  0.0000000E+00  0.0000000E+00  0.0000000E+00  0.0000000E+00  0.0000000E+00
  0.0000000E+00  0.0000000E+00  0.0000000E+00  0.0000000E+00  0.0000000E+00
  0.0000000E+00  0.0000000E+00  0.0000000E+00  0.0000000E+00  0.0000000E+00
 -0.6163011E-01  0.4094258E-01  0.0000000E+00  0.0000000E+00  0.0000000E+00
  0.0000000E+00  0.0000000E+00  0.0000000E+00 -0.8343359E-03  0.0000000E+00
  0.0000000E+00  0.0000000E+00  0.0000000E+00  0.0000000E+00  0.0000000E+00
 -0.1602676E-01 -0.1427387E-19  0.4952223E-24  0.3334877E-03 -0.2807649E-24
  0.5449676E-18  0.3519231E-02  0.5574657E-20 -0.1077244E-23 -0.7525994E-03
  0.5269544E-24  0.1218513E-18 -0.1756661E-03 -0.8916700E-21  0.2177836E-25
  0.5375721E-04 -0.1682746E-25 -0.6321211E-20
augmentation occupancies (imaginary part)   1 138
  0.1238607E-16 -0.3006258E-23 -0.1715912E-23  0.1921596E-17  0.4686218E-23
 -0.2409306E-23  0.0000000E+00  0.0000000E+00  0.0000000E+00  0.0000000E+00
  0.0000000E+00  0.0000000E+00  0.0000000E+00  0.0000000E+00  0.0000000E+00
  0.1396544E-07  0.2035059E-22  0.2675257E-23  0.2153667E-08 -0.6347446E-23
 -0.7230422E-23  0.0000000E+00  0.0000000E+00  0.0000000E+00  0.0000000E+00
  0.0000000E+00  0.0000000E+00  0.0000000E+00  0.0000000E+00  0.0000000E+00
  0.9771786E-24  0.2890335E-23 -0.1170787E-06 -0.8183843E-23  0.1524861E-23
  0.4468684E-24 -0.1406956E-23  0.6076355E-07  0.1228580E-23  0.4375992E-24
  0.0000000E+00  0.0000000E+00  0.0000000E+00  0.0000000E+00  0.0000000E+00
  0.0000000E+00  0.0000000E+00  0.0000000E+00  0.0000000E+00  0.0000000E+00
  0.0000000E+00  0.0000000E+00  0.0000000E+00  0.0000000E+00  0.0000000E+00
  0.0000000E+00  0.0000000E+00  0.0000000E+00  0.0000000E+00  0.0000000E+00
 -0.3198917E-17  0.4140037E-23 -0.1709186E-23  0.2606777E-17  0.1125223E-23
 -0.1558299E-23  0.0000000E+00  0.0000000E+00  0.0000000E+00  0.0000000E+00
  0.0000000E+00  0.0000000E+00  0.0000000E+00  0.0000000E+00  0.0000000E+00
 -0.9008749E-25  0.1963088E-24  0.5331102E-07  0.2656864E-23  0.4266938E-24
  0.1051887E-24  0.6828719E-24 -0.2438596E-07 -0.8496458E-24  0.4715167E-24
  0.0000000E+00  0.0000000E+00  0.0000000E+00  0.0000000E+00  0.0000000E+00
  0.0000000E+00  0.0000000E+00  0.0000000E+00  0.0000000E+00  0.0000000E+00
  0.0000000E+00  0.0000000E+00  0.0000000E+00  0.0000000E+00  0.0000000E+00
  0.0000000E+00  0.0000000E+00  0.0000000E+00  0.0000000E+00  0.0000000E+00
 -0.7886650E-18  0.3521741E-07  0.0000000E+00  0.0000000E+00  0.0000000E+00
  0.0000000E+00  0.0000000E+00  0.0000000E+00  0.6696127E-21  0.0000000E+00
  0.0000000E+00  0.0000000E+00  0.0000000E+00  0.0000000E+00  0.0000000E+00
 -0.4367965E-18  0.3900267E-24 -0.1301878E-24  0.1525048E-18  0.6177731E-24
 -0.1337608E-24 -0.4052325E-08 -0.5126320E-24  0.1034541E-24  0.5595325E-08
 -0.1484116E-23 -0.6663646E-25 -0.2541514E-20 -0.2617509E-25 -0.1988223E-25
  0.9623004E-21  0.3840010E-25 -0.1086925E-25
