CoMonolayer                             
   1.00000000000000     
     2.508300    0.000000    0.000000
     1.254150    2.172252    0.000000
     0.000000    0.000000   20.000000
   Co
     1
Direct
  0.000000  0.000000  0.500000
 
   24   24  196
 0.24554909586E+01 0.19605678855E+01 0.87421310719E+00 -.76001653512E-02 -.22041103878E+00
 0.93388537378E-01 0.50404287898E+00 0.71298138496E+00 0.67848625721E+00 0.50662871396E+00
 0.32063700618E+00 0.19572399317E+00 0.15395331907E+00 0.19572399317E+00 0.32063700618E+00
 0.50662871396E+00 0.67848625721E+00 0.71298138496E+00 0.50404287898E+00 0.93388537378E-01
 -.22041103878E+00 -.76001653512E-02 0.87421310719E+00 0.19605678855E+01 0.19605678855E+01
 0.14966016587E+01 0.65040622665E+00 0.76726802869E-02 -.13917728816E+00 0.87385654443E-01
 0.38954949071E+00 0.55627545567E+00 0.55058723066E+00 0.45040380506E+00 0.34225056965E+00
 0.25917981304E+00 0.20352193833E+00 0.19560010618E+00 0.26535789012E+00 0.40415143626E+00
 0.54691838561E+00 0.59099023371E+00 0.44310039415E+00 0.13018185577E+00 -.95822833891E-01
 0.11825066149E+00 0.84856754832E+00 0.16691340770E+01 0.87421310719E+00 0.65040622665E+00
 0.34559225851E+00 0.12733758292E+00 0.57405070012E-01 0.10806181734E+00 0.20665169833E+00
 0.27752384757E+00 0.29435556696E+00 0.29095611639E+00 0.29974438451E+00 0.30490479102E+00
 0.28045884181E+00 0.24068379711E+00 0.22033531750E+00 0.23064167820E+00 0.25695072695E+00
 0.27070567627E+00 0.23563595060E+00 0.15438521967E+00 0.12403567610E+00 0.27066367659E+00
 0.57945937956E+00 0.84856754832E+00 -.76001653512E-02 0.76726802869E-02 0.12733758292E+00
 0.21155014846E+00 0.19132864700E+00 0.12660565784E+00 0.95527780858E-01 0.10428235588E+00
 0.12537880910E+00 0.15636872380E+00 0.20368877056E+00 0.25059827428E+00 0.27205346902E+00
 0.25686650818E+00 0.20286333603E+00 0.11801076823E+00 0.35187333649E-01 0.80142006417E-04
 0.36449357350E-01 0.13383829597E+00 0.25241380446E+00 0.32116818576E+00 0.27066367659E+00
 0.11825066149E+00 -.22041103878E+00 -.13917728816E+00 0.57405070012E-01 0.19132864700E+00
 0.19360073726E+00 0.13594128695E+00 0.10397645066E+00 0.10855553639E+00 0.11710226101E+00
 0.11450727796E+00 0.11477052779E+00 0.13675725922E+00 0.17760120997E+00 0.20389561665E+00
 0.17817389041E+00 0.10179661045E+00 0.19568705690E-01 -.19677820215E-01 0.93242084727E-02
 0.10528765847E+00 0.22065805669E+00 0.25241380446E+00 0.12403567610E+00 -.95822833891E-01
 0.93388537378E-01 0.87385654443E-01 0.10806181734E+00 0.12660565784E+00 0.13594128695E+00
 0.14798077808E+00 0.16503942715E+00 0.17459952199E+00 0.16382675691E+00 0.13251756656E+00
 0.98768117660E-01 0.86693098681E-01 0.97813266706E-01 0.10831196069E+00 0.10982022350E+00
 0.12868998671E+00 0.17673275452E+00 0.21049246713E+00 0.18445191755E+00 0.12622013995E+00
 0.10528765847E+00 0.13383829597E+00 0.15438521967E+00 0.13018185577E+00 0.50404287898E+00
 0.38954949071E+00 0.20665169833E+00 0.95527780858E-01 0.10397645066E+00 0.16503942715E+00
 0.19264950755E+00 0.17093818242E+00 0.14135738631E+00 0.13621801855E+00 0.14861233265E+00
 0.14744492770E+00 0.10739190016E+00 0.47240711693E-01 0.44941828367E-01 0.17052408576E+00
 0.37684381053E+00 0.49938897635E+00 0.41444531762E+00 0.18445191755E+00 0.93242084728E-02
 0.36449357350E-01 0.23563595060E+00 0.44310039415E+00 0.71298138496E+00 0.55627545567E+00
 0.27752384757E+00 0.10428235588E+00 0.10855553639E+00 0.17459952199E+00 0.17093818242E+00
 0.96326565449E-01 0.46564192254E-01 0.86423135951E-01 0.18160722490E+00 0.23695769703E+00
 0.19236996285E+00 0.98450515464E-01 0.90491283795E-01 0.25160587211E+00 0.49565657124E+00
 0.62062105640E+00 0.49938897635E+00 0.21049246713E+00 -.19677820215E-01 0.80142006427E-04
 0.27070567627E+00 0.59099023371E+00 0.67848625721E+00 0.55058723066E+00 0.29435556696E+00
 0.12537880910E+00 0.11710226101E+00 0.16382675691E+00 0.14135738631E+00 0.46564192254E-01
 -.22943783432E-01 0.13999242977E-01 0.13897216861E+00 0.25417278813E+00 0.28418585402E+00
 0.25775815715E+00 0.27113206568E+00 0.36724836296E+00 0.47801956562E+00 0.49565657124E+00
 0.37684381053E+00 0.17673275452E+00 0.19568705690E-01 0.35187333649E-01 0.25695072695E+00
 0.54691838561E+00 0.50662871396E+00 0.45040380506E+00 0.29095611639E+00 0.15636872380E+00
 0.11450727796E+00 0.13251756656E+00 0.13621801855E+00 0.86423135951E-01 0.13999242977E-01
 -.89895064333E-02 0.57574450980E-01 0.18282769741E+00 0.30863051862E+00 0.40625237147E+00
 0.46388652712E+00 0.45434974679E+00 0.36724836296E+00 0.25160587211E+00 0.17052408576E+00
 0.12868998671E+00 0.10179661045E+00 0.11801076823E+00 0.23064167820E+00 0.40415143626E+00
 0.32063700618E+00 0.34225056965E+00 0.29974438451E+00 0.20368877056E+00 0.11477052779E+00
 0.98768117660E-01 0.14861233265E+00 0.18160722490E+00 0.13897216861E+00 0.57574450980E-01
 0.22370896965E-01 0.83015618126E-01 0.23187012105E+00 0.41178754696E+00 0.51955101971E+00
 0.46388652712E+00 0.27113206568E+00 0.90491283795E-01 0.44941828367E-01 0.10982022350E+00
 0.17817389041E+00 0.20286333603E+00 0.22033531750E+00 0.26535789012E+00 0.19572399317E+00
 0.25917981304E+00 0.30490479102E+00 0.25059827428E+00 0.13675725922E+00 0.86693098681E-01
 0.14744492770E+00 0.23695769703E+00 0.25417278813E+00 0.18282769741E+00 0.83015618126E-01
 0.37356982961E-01 0.10590696213E+00 0.27019714368E+00 0.41178754696E+00 0.40625237147E+00
 0.25775815715E+00 0.98450515464E-01 0.47240711693E-01 0.10831196069E+00 0.20389561665E+00
 0.25686650818E+00 0.24068379711E+00 0.19560010618E+00 0.15395331907E+00 0.20352193833E+00
 0.28045884181E+00 0.27205346902E+00 0.17760120997E+00 0.97813266706E-01 0.10739190016E+00
 0.19236996285E+00 0.28418585402E+00 0.30863051862E+00 0.23187012105E+00 0.10590696213E+00
 0.43623062217E-01 0.10590696213E+00 0.23187012105E+00 0.30863051862E+00 0.28418585402E+00
 0.19236996285E+00 0.10739190016E+00 0.97813266706E-01 0.17760120997E+00 0.27205346902E+00
 0.28045884181E+00 0.20352193833E+00 0.19572399317E+00 0.19560010618E+00 0.24068379711E+00
 0.25686650818E+00 0.20389561665E+00 0.10831196069E+00 0.47240711693E-01 0.98450515464E-01
 0.25775815715E+00 0.40625237147E+00 0.41178754696E+00 0.27019714368E+00 0.10590696213E+00
 0.37356982961E-01 0.83015618126E-01 0.18282769741E+00 0.25417278813E+00 0.23695769703E+00
 0.14744492770E+00 0.86693098681E-01 0.13675725922E+00 0.25059827428E+00 0.30490479102E+00
 0.25917981304E+00 0.32063700618E+00 0.26535789012E+00 0.22033531750E+00 0.20286333603E+00
 0.17817389041E+00 0.10982022350E+00 0.44941828367E-01 0.90491283795E-01 0.27113206568E+00
 0.46388652712E+00 0.51955101971E+00 0.41178754696E+00 0.23187012105E+00 0.83015618126E-01
 0.22370896965E-01 0.57574450980E-01 0.13897216861E+00 0.18160722490E+00 0.14861233265E+00
 0.98768117660E-01 0.11477052779E+00 0.20368877056E+00 0.29974438451E+00 0.34225056965E+00
 0.50662871396E+00 0.40415143626E+00 0.23064167820E+00 0.11801076823E+00 0.10179661045E+00
 0.12868998671E+00 0.17052408576E+00 0.25160587211E+00 0.36724836296E+00 0.45434974679E+00
 0.46388652712E+00 0.40625237147E+00 0.30863051862E+00 0.18282769741E+00 0.57574450980E-01
 -.89895064333E-02 0.13999242977E-01 0.86423135951E-01 0.13621801855E+00 0.13251756656E+00
 0.11450727796E+00 0.15636872380E+00 0.29095611639E+00 0.45040380506E+00 0.67848625721E+00
 0.54691838561E+00 0.25695072695E+00 0.35187333649E-01 0.19568705690E-01 0.17673275452E+00
 0.37684381053E+00 0.49565657124E+00 0.47801956562E+00 0.36724836296E+00 0.27113206568E+00
 0.25775815715E+00 0.28418585402E+00 0.25417278813E+00 0.13897216861E+00 0.13999242977E-01
 -.22943783431E-01 0.46564192254E-01 0.14135738631E+00 0.16382675691E+00 0.11710226101E+00
 0.12537880910E+00 0.29435556696E+00 0.55058723066E+00 0.71298138496E+00 0.59099023371E+00
 0.27070567627E+00 0.80142006467E-04 -.19677820215E-01 0.21049246713E+00 0.49938897635E+00
 0.62062105640E+00 0.49565657124E+00 0.25160587211E+00 0.90491283795E-01 0.98450515464E-01
 0.19236996285E+00 0.23695769703E+00 0.18160722490E+00 0.86423135951E-01 0.46564192254E-01
 0.96326565449E-01 0.17093818242E+00 0.17459952199E+00 0.10855553639E+00 0.10428235588E+00
 0.27752384757E+00 0.55627545567E+00 0.50404287898E+00 0.44310039415E+00 0.23563595060E+00
 0.36449357350E-01 0.93242084727E-02 0.18445191755E+00 0.41444531762E+00 0.49938897635E+00
 0.37684381053E+00 0.17052408576E+00 0.44941828367E-01 0.47240711693E-01 0.10739190016E+00
 0.14744492770E+00 0.14861233265E+00 0.13621801855E+00 0.14135738631E+00 0.17093818242E+00
 0.19264950755E+00 0.16503942715E+00 0.10397645066E+00 0.95527780858E-01 0.20665169833E+00
 0.38954949071E+00 0.93388537378E-01 0.13018185577E+00 0.15438521967E+00 0.13383829597E+00
 0.10528765847E+00 0.12622013995E+00 0.18445191755E+00 0.21049246713E+00 0.17673275452E+00
 0.12868998671E+00 0.10982022350E+00 0.10831196069E+00 0.97813266706E-01 0.86693098681E-01
 0.98768117660E-01 0.13251756656E+00 0.16382675691E+00 0.17459952199E+00 0.16503942715E+00
 0.14798077808E+00 0.13594128695E+00 0.12660565784E+00 0.10806181734E+00 0.87385654443E-01
 -.22041103878E+00 -.95822833891E-01 0.12403567610E+00 0.25241380446E+00 0.22065805669E+00
 0.10528765847E+00 0.93242084728E-02 -.19677820215E-01 0.19568705690E-01 0.10179661045E+00
 0.17817389041E+00 0.20389561665E+00 0.17760120997E+00 0.13675725922E+00 0.11477052779E+00
 0.11450727796E+00 0.11710226101E+00 0.10855553639E+00 0.10397645066E+00 0.13594128695E+00
 0.19360073726E+00 0.19132864700E+00 0.57405070012E-01 -.13917728816E+00 -.76001653512E-02
 0.11825066149E+00 0.27066367659E+00 0.32116818576E+00 0.25241380446E+00 0.13383829597E+00
 0.36449357350E-01 0.80142006369E-04 0.35187333649E-01 0.11801076823E+00 0.20286333603E+00
 0.25686650818E+00 0.27205346902E+00 0.25059827428E+00 0.20368877056E+00 0.15636872380E+00
 0.12537880910E+00 0.10428235588E+00 0.95527780858E-01 0.12660565784E+00 0.19132864700E+00
 0.21155014846E+00 0.12733758292E+00 0.76726802869E-02 0.87421310719E+00 0.84856754832E+00
 0.57945937956E+00 0.27066367659E+00 0.12403567610E+00 0.15438521967E+00 0.23563595060E+00
 0.27070567627E+00 0.25695072695E+00 0.23064167820E+00 0.22033531750E+00 0.24068379711E+00
 0.28045884181E+00 0.30490479102E+00 0.29974438451E+00 0.29095611639E+00 0.29435556696E+00
 0.27752384757E+00 0.20665169833E+00 0.10806181734E+00 0.57405070012E-01 0.12733758292E+00
 0.34559225851E+00 0.65040622665E+00 0.19605678855E+01 0.16691340770E+01 0.84856754832E+00
 0.11825066149E+00 -.95822833891E-01 0.13018185577E+00 0.44310039415E+00 0.59099023371E+00
 0.54691838561E+00 0.40415143626E+00 0.26535789012E+00 0.19560010618E+00 0.20352193833E+00
 0.25917981304E+00 0.34225056965E+00 0.45040380506E+00 0.55058723066E+00 0.55627545567E+00
 0.38954949071E+00 0.87385654443E-01 -.13917728816E+00 0.76726802868E-02 0.65040622665E+00
 0.14966016587E+01 0.20422883272E+01 0.16355166201E+01 0.73958556697E+00 0.72097937428E-02
 -.17150818772E+00 0.95213458965E-01 0.44836394111E+00 0.62623246684E+00 0.58802066429E+00
 0.43276802960E+00 0.27681882901E+00 0.18187677834E+00 0.15278434066E+00 0.18187677834E+00
 0.27681882901E+00 0.43276802960E+00 0.58802066429E+00 0.62623246684E+00 0.44836394111E+00
 0.95213458965E-01 -.17150818772E+00 0.72097937428E-02 0.73958556697E+00 0.16355166201E+01
 0.16355166201E+01 0.12560040685E+01 0.55741514514E+00 0.22187347241E-01 -.10114544623E+00
 0.92033650757E-01 0.35073939573E+00 0.49060829418E+00 0.47917619312E+00 0.38935724292E+00
 0.30053507279E+00 0.23744769297E+00 0.19264865079E+00 0.17947113332E+00 0.23098430986E+00
 0.35025795208E+00 0.48111725127E+00 0.52453633206E+00 0.39480738787E+00 0.12200310681E+00
 -.72227248103E-01 0.10643310675E+00 0.71335422288E+00 0.13925816277E+01 0.73958556697E+00
 0.55741514514E+00 0.30433046806E+00 0.12153781981E+00 0.63935033517E-01 0.10853152793E+00
 0.19225003215E+00 0.25119828557E+00 0.26492675735E+00 0.26275627111E+00 0.27137957275E+00
 0.27638979859E+00 0.25456673258E+00 0.21773921666E+00 0.19829481457E+00 0.20957576363E+00
 0.23769540940E+00 0.25179943603E+00 0.21771178248E+00 0.14152153257E+00 0.11004307700E+00
 0.22968613369E+00 0.48678590680E+00 0.71335422288E+00 0.72097937428E-02 0.22187347241E-01
 0.12153781981E+00 0.19273331421E+00 0.17799728508E+00 0.12350797055E+00 0.94611098868E-01
 0.10131874655E+00 0.12265944933E+00 0.15267052757E+00 0.19300384299E+00 0.23074219611E+00
 0.24749170852E+00 0.23389471686E+00 0.18716551525E+00 0.11477374010E+00 0.45768296036E-01
 0.18319655631E-01 0.50329215547E-01 0.13033252244E+00 0.22382317746E+00 0.27436949233E+00
 0.22968613369E+00 0.10643310675E+00 -.17150818772E+00 -.10114544623E+00 0.63935033517E-01
 0.17799728508E+00 0.18196071057E+00 0.13240999690E+00 0.10210978196E+00 0.10464528096E+00
 0.11411835710E+00 0.11502730541E+00 0.11679968052E+00 0.13568687254E+00 0.17000427393E+00
 0.19100555297E+00 0.16642967003E+00 0.98347874286E-01 0.27400259673E-01 -.23434344184E-02
 0.29234692363E-01 0.11432708733E+00 0.20702695522E+00 0.22382317746E+00 0.11004307700E+00
 -.72227248103E-01 0.95213458965E-01 0.92033650757E-01 0.10853152793E+00 0.12350797055E+00
 0.13240999690E+00 0.14403663953E+00 0.15870894478E+00 0.16544238845E+00 0.15465493787E+00
 0.12830975066E+00 0.10218060792E+00 0.94260108795E-01 0.10347207251E+00 0.11026776796E+00
 0.10922508441E+00 0.12268113904E+00 0.16123504372E+00 0.19147037925E+00 0.17628301298E+00
 0.13341788365E+00 0.11432708733E+00 0.13033252244E+00 0.14152153257E+00 0.12200310681E+00
 0.44836394111E+00 0.35073939573E+00 0.19225003215E+00 0.94611098868E-01 0.10210978196E+00
 0.15870894478E+00 0.18734101761E+00 0.16968561054E+00 0.14131387344E+00 0.13452284988E+00
 0.14565897181E+00 0.14544023740E+00 0.11021318054E+00 0.58055770438E-01 0.56808749318E-01
 0.16339810634E+00 0.33579110015E+00 0.43747150877E+00 0.36725601619E+00 0.17628301298E+00
 0.29234692363E-01 0.50329215547E-01 0.21771178248E+00 0.39480738787E+00 0.62623246684E+00
 0.49060829418E+00 0.25119828557E+00 0.10131874655E+00 0.10464528096E+00 0.16544238845E+00
 0.16968561054E+00 0.11063653110E+00 0.67462126130E-01 0.98039423899E-01 0.17601714627E+00
 0.22055259634E+00 0.18057615026E+00 0.10042246693E+00 0.95010879892E-01 0.23266828178E+00
 0.43871230955E+00 0.54245267024E+00 0.43747150877E+00 0.19147037925E+00 -.23434344184E-02
 0.18319655631E-01 0.25179943603E+00 0.52453633206E+00 0.58802066429E+00 0.47917619312E+00
 0.26492675735E+00 0.12265944933E+00 0.11411835710E+00 0.15465493787E+00 0.14131387344E+00
 0.67462126130E-01 0.10718708631E-01 0.39173551510E-01 0.14038933497E+00 0.23446854334E+00
 0.25773830116E+00 0.23308317827E+00 0.24209252079E+00 0.32362605256E+00 0.42093164577E+00
 0.43871230955E+00 0.33579110015E+00 0.16123504372E+00 0.27400259673E-01 0.45768296036E-01
 0.23769540940E+00 0.48111725127E+00 0.43276802960E+00 0.38935724292E+00 0.26275627111E+00
 0.15267052757E+00 0.11502730541E+00 0.12830975066E+00 0.13452284988E+00 0.98039423899E-01
 0.39173551510E-01 0.16991650479E-01 0.69108932680E-01 0.17316343643E+00 0.27844947937E+00
 0.35673833691E+00 0.39947707920E+00 0.39057981372E+00 0.32362605256E+00 0.23266828178E+00
 0.16339810634E+00 0.12268113904E+00 0.98347874286E-01 0.11477374010E+00 0.20957576363E+00
 0.35025795208E+00 0.27681882901E+00 0.30053507279E+00 0.27137957275E+00 0.19300384299E+00
 0.11679968052E+00 0.10218060792E+00 0.14565897181E+00 0.17601714627E+00 0.14038933497E+00
 0.69108932680E-01 0.36922026290E-01 0.88201644270E-01 0.21400561955E+00 0.36216119418E+00
 0.44747152012E+00 0.39947707920E+00 0.24209252079E+00 0.95010879892E-01 0.56808749318E-01
 0.10922508441E+00 0.16642967003E+00 0.18716551525E+00 0.19829481457E+00 0.23098430986E+00
 0.18187677834E+00 0.23744769297E+00 0.27638979859E+00 0.23074219611E+00 0.13568687254E+00
 0.94260108795E-01 0.14544023740E+00 0.22055259634E+00 0.23446854334E+00 0.17316343643E+00
 0.88201644270E-01 0.50215830887E-01 0.10848315652E+00 0.24541565999E+00 0.36216119418E+00
 0.35673833691E+00 0.23308317827E+00 0.10042246693E+00 0.58055770438E-01 0.11026776796E+00
 0.19100555297E+00 0.23389471686E+00 0.21773921666E+00 0.17947113332E+00 0.15278434066E+00
 0.19264865079E+00 0.25456673258E+00 0.24749170852E+00 0.17000427393E+00 0.10347207251E+00
 0.11021318054E+00 0.18057615026E+00 0.25773830116E+00 0.27844947937E+00 0.21400561955E+00
 0.10848315652E+00 0.56401879773E-01 0.10848315652E+00 0.21400561955E+00 0.27844947937E+00
 0.25773830116E+00 0.18057615026E+00 0.11021318054E+00 0.10347207251E+00 0.17000427393E+00
 0.24749170852E+00 0.25456673258E+00 0.19264865079E+00 0.18187677834E+00 0.17947113332E+00
 0.21773921666E+00 0.23389471686E+00 0.19100555297E+00 0.11026776796E+00 0.58055770438E-01
 0.10042246693E+00 0.23308317827E+00 0.35673833691E+00 0.36216119418E+00 0.24541565999E+00
 0.10848315652E+00 0.50215830887E-01 0.88201644270E-01 0.17316343643E+00 0.23446854334E+00
 0.22055259634E+00 0.14544023740E+00 0.94260108795E-01 0.13568687254E+00 0.23074219611E+00
 0.27638979859E+00 0.23744769297E+00 0.27681882901E+00 0.23098430986E+00 0.19829481457E+00
 0.18716551525E+00 0.16642967003E+00 0.10922508441E+00 0.56808749318E-01 0.95010879892E-01
 0.24209252079E+00 0.39947707920E+00 0.44747152012E+00 0.36216119418E+00 0.21400561955E+00
 0.88201644270E-01 0.36922026290E-01 0.69108932680E-01 0.14038933497E+00 0.17601714627E+00
 0.14565897181E+00 0.10218060792E+00 0.11679968052E+00 0.19300384299E+00 0.27137957275E+00
 0.30053507279E+00 0.43276802960E+00 0.35025795208E+00 0.20957576363E+00 0.11477374010E+00
 0.98347874286E-01 0.12268113904E+00 0.16339810634E+00 0.23266828178E+00 0.32362605256E+00
 0.39057981372E+00 0.39947707920E+00 0.35673833691E+00 0.27844947937E+00 0.17316343643E+00
 0.69108932680E-01 0.16991650479E-01 0.39173551510E-01 0.98039423899E-01 0.13452284988E+00
 0.12830975066E+00 0.11502730541E+00 0.15267052757E+00 0.26275627111E+00 0.38935724292E+00
 0.58802066429E+00 0.48111725127E+00 0.23769540940E+00 0.45768296036E-01 0.27400259673E-01
 0.16123504372E+00 0.33579110015E+00 0.43871230955E+00 0.42093164577E+00 0.32362605256E+00
 0.24209252079E+00 0.23308317827E+00 0.25773830116E+00 0.23446854334E+00 0.14038933497E+00
 0.39173551510E-01 0.10718708631E-01 0.67462126130E-01 0.14131387344E+00 0.15465493787E+00
 0.11411835710E+00 0.12265944933E+00 0.26492675735E+00 0.47917619312E+00 0.62623246684E+00
 0.52453633206E+00 0.25179943603E+00 0.18319655631E-01 -.23434344184E-02 0.19147037925E+00
 0.43747150877E+00 0.54245267024E+00 0.43871230955E+00 0.23266828178E+00 0.95010879892E-01
 0.10042246693E+00 0.18057615026E+00 0.22055259634E+00 0.17601714627E+00 0.98039423899E-01
 0.67462126130E-01 0.11063653110E+00 0.16968561054E+00 0.16544238845E+00 0.10464528096E+00
 0.10131874655E+00 0.25119828557E+00 0.49060829418E+00 0.44836394111E+00 0.39480738787E+00
 0.21771178248E+00 0.50329215547E-01 0.29234692363E-01 0.17628301298E+00 0.36725601619E+00
 0.43747150877E+00 0.33579110015E+00 0.16339810634E+00 0.56808749318E-01 0.58055770438E-01
 0.11021318054E+00 0.14544023740E+00 0.14565897181E+00 0.13452284988E+00 0.14131387344E+00
 0.16968561054E+00 0.18734101761E+00 0.15870894478E+00 0.10210978196E+00 0.94611098868E-01
 0.19225003215E+00 0.35073939573E+00 0.95213458965E-01 0.12200310681E+00 0.14152153257E+00
 0.13033252244E+00 0.11432708733E+00 0.13341788365E+00 0.17628301298E+00 0.19147037925E+00
 0.16123504372E+00 0.12268113904E+00 0.10922508441E+00 0.11026776796E+00 0.10347207251E+00
 0.94260108795E-01 0.10218060792E+00 0.12830975066E+00 0.15465493787E+00 0.16544238845E+00
 0.15870894478E+00 0.14403663953E+00 0.13240999690E+00 0.12350797055E+00 0.10853152793E+00
 0.92033650757E-01 -.17150818772E+00 -.72227248104E-01 0.11004307700E+00 0.22382317746E+00
 0.20702695522E+00 0.11432708733E+00 0.29234692363E-01 -.23434344185E-02 0.27400259673E-01
 0.98347874286E-01 0.16642967003E+00 0.19100555297E+00 0.17000427393E+00 0.13568687254E+00
 0.11679968052E+00 0.11502730541E+00 0.11411835710E+00 0.10464528096E+00 0.10210978196E+00
 0.13240999690E+00 0.18196071057E+00 0.17799728508E+00 0.63935033517E-01 -.10114544623E+00
 0.72097937427E-02 0.10643310675E+00 0.22968613369E+00 0.27436949233E+00 0.22382317746E+00
 0.13033252244E+00 0.50329215547E-01 0.18319655631E-01 0.45768296036E-01 0.11477374010E+00
 0.18716551525E+00 0.23389471686E+00 0.24749170852E+00 0.23074219611E+00 0.19300384299E+00
 0.15267052757E+00 0.12265944933E+00 0.10131874655E+00 0.94611098868E-01 0.12350797055E+00
 0.17799728508E+00 0.19273331421E+00 0.12153781981E+00 0.22187347241E-01 0.73958556697E+00
 0.71335422288E+00 0.48678590680E+00 0.22968613369E+00 0.11004307700E+00 0.14152153257E+00
 0.21771178248E+00 0.25179943603E+00 0.23769540940E+00 0.20957576363E+00 0.19829481457E+00
 0.21773921666E+00 0.25456673258E+00 0.27638979859E+00 0.27137957275E+00 0.26275627111E+00
 0.26492675735E+00 0.25119828557E+00 0.19225003215E+00 0.10853152793E+00 0.63935033517E-01
 0.12153781981E+00 0.30433046806E+00 0.55741514514E+00 0.16355166201E+01 0.13925816277E+01
 0.71335422288E+00 0.10643310675E+00 -.72227248104E-01 0.12200310681E+00 0.39480738787E+00
 0.52453633206E+00 0.48111725127E+00 0.35025795208E+00 0.23098430986E+00 0.17947113332E+00
 0.19264865079E+00 0.23744769297E+00 0.30053507279E+00 0.38935724292E+00 0.47917619312E+00
 0.49060829418E+00 0.35073939573E+00 0.92033650757E-01 -.10114544623E+00 0.22187347241E-01
 0.55741514514E+00 0.12560040685E+01 0.11300054104E+01 0.91360982591E+00 0.43253497256E+00
 0.32551956517E-01 -.64562416727E-01 0.97804047986E-01 0.31669335437E+00 0.42133214424E+00
 0.37744569517E+00 0.26343099100E+00 0.17495210749E+00 0.14443326729E+00 0.14219162977E+00
 0.14443326729E+00 0.17495210749E+00 0.26343099100E+00 0.37744569517E+00 0.42133214424E+00
 0.31669335437E+00 0.97804047986E-01 -.64562416727E-01 0.32551956517E-01 0.43253497256E+00
 0.91360982591E+00 0.91360982591E+00 0.71538324605E+00 0.34138280645E+00 0.49093908186E-01
 -.17927705263E-01 0.98444358648E-01 0.25509682275E+00 0.33375499537E+00 0.31206442451E+00
 0.24749773951E+00 0.20161608407E+00 0.18192858600E+00 0.16113813916E+00 0.13778310076E+00
 0.14993457228E+00 0.22340236002E+00 0.32299937696E+00 0.36465134471E+00 0.28217407940E+00
 0.10484835226E+00 -.20697179600E-01 0.73854717911E-01 0.40741014264E+00 0.77815867984E+00
 0.43253497256E+00 0.34138280645E+00 0.20622866442E+00 0.10638643349E+00 0.75961676741E-01
 0.10328588666E+00 0.15141270678E+00 0.18394862492E+00 0.19153575401E+00 0.19284413318E+00
 0.20209260309E+00 0.20703529734E+00 0.19037089277E+00 0.16000229611E+00 0.14263457923E+00
 0.15380471116E+00 0.18275993669E+00 0.19920211163E+00 0.17436767782E+00 0.11475749049E+00
 0.79344376663E-01 0.13495528483E+00 0.27577137810E+00 0.40741014264E+00 0.32551956517E-01
 0.49093908186E-01 0.10638643349E+00 0.14822145509E+00 0.14257112883E+00 0.10962813096E+00
 0.86896329775E-01 0.89436867182E-01 0.11021580919E+00 0.13829551092E+00 0.16465523537E+00
 0.18179463875E+00 0.18620526290E+00 0.17588531740E+00 0.14667798948E+00 0.10152228106E+00
 0.60941997877E-01 0.50481773819E-01 0.76245183322E-01 0.12098649627E+00 0.15948674235E+00
 0.16858825637E+00 0.13495528483E+00 0.73854717911E-01 -.64562416727E-01 -.17927705263E-01
 0.75961676741E-01 0.14257112883E+00 0.14906231026E+00 0.12047735381E+00 0.96764419250E-01
 0.93610036859E-01 0.10232959369E+00 0.11048674787E+00 0.11644260242E+00 0.12805786638E+00
 0.14759887547E+00 0.15910127773E+00 0.13999694694E+00 0.90133797641E-01 0.40879672105E-01
 0.28886345478E-01 0.64868387955E-01 0.12683511187E+00 0.17233507921E+00 0.15948674235E+00
 0.79344376663E-01 -.20697179600E-01 0.97804047986E-01 0.98444358648E-01 0.10328588666E+00
 0.10962813096E+00 0.12047735381E+00 0.13547532315E+00 0.14557878276E+00 0.14226685483E+00
 0.12720080493E+00 0.11023249430E+00 0.10151465747E+00 0.10475723170E+00 0.11341922790E+00
 0.11596577396E+00 0.11052704302E+00 0.10983998750E+00 0.12375878196E+00 0.14241028881E+00
 0.14785087472E+00 0.13815477122E+00 0.12683511187E+00 0.12098649627E+00 0.11475749049E+00
 0.10484835226E+00 0.31669335437E+00 0.25509682275E+00 0.15141270678E+00 0.86896329775E-01
 0.96764419250E-01 0.14557878276E+00 0.17394588016E+00 0.15999118755E+00 0.12974470627E+00
 0.11732233857E+00 0.12702490608E+00 0.13373593584E+00 0.11498388179E+00 0.82837488496E-01
 0.81673501486E-01 0.14321633139E+00 0.23958113152E+00 0.29432640770E+00 0.25421120882E+00
 0.14785087472E+00 0.64868387955E-01 0.76245183322E-01 0.17436767782E+00 0.28217407940E+00
 0.42133214424E+00 0.33375499537E+00 0.18394862492E+00 0.89436867182E-01 0.93610036859E-01
 0.14226685483E+00 0.15999118755E+00 0.13065596027E+00 0.98817290401E-01 0.10794310714E+00
 0.15018851794E+00 0.17592746646E+00 0.15023950291E+00 0.99973529474E-01 0.96832454288E-01
 0.18140737659E+00 0.30536292677E+00 0.36382798604E+00 0.29432640770E+00 0.14241028881E+00
 0.28886345478E-01 0.50481773820E-01 0.19920211163E+00 0.36465134471E+00 0.37744569517E+00
 0.31206442451E+00 0.19153575401E+00 0.11021580919E+00 0.10232959369E+00 0.12720080493E+00
 0.12974470627E+00 0.98817290401E-01 0.69446449471E-01 0.80524531189E-01 0.13224008462E+00
 0.18273885725E+00 0.19186662541E+00 0.16927645731E+00 0.16699768195E+00 0.21684102683E+00
 0.28591495428E+00 0.30536292677E+00 0.23958113152E+00 0.12375878196E+00 0.40879672105E-01
 0.60941997877E-01 0.18275993669E+00 0.32299937696E+00 0.26343099100E+00 0.24749773951E+00
 0.19284413318E+00 0.13829551092E+00 0.11048674787E+00 0.11023249430E+00 0.11732233857E+00
 0.10794310714E+00 0.80524531189E-01 0.64027857521E-01 0.87952409157E-01 0.14627321075E+00
 0.20448488837E+00 0.23808227626E+00 0.24763010176E+00 0.24014780658E+00 0.21684102683E+00
 0.18140737659E+00 0.14321633139E+00 0.10983998750E+00 0.90133797641E-01 0.10152228106E+00
 0.15380471116E+00 0.22340236002E+00 0.17495210749E+00 0.20161608407E+00 0.20209260309E+00
 0.16465523537E+00 0.11644260242E+00 0.10151465747E+00 0.12702490608E+00 0.15018851794E+00
 0.13224008462E+00 0.87952409157E-01 0.66342739356E-01 0.97093837950E-01 0.16918105879E+00
 0.24499806163E+00 0.28004215297E+00 0.24763010176E+00 0.16699768195E+00 0.96832454288E-01
 0.81673501486E-01 0.11052704302E+00 0.13999694694E+00 0.14667798948E+00 0.14263457923E+00
 0.14993457228E+00 0.14443326729E+00 0.18192858600E+00 0.20703529734E+00 0.18179463875E+00
 0.12805786638E+00 0.10475723170E+00 0.13373593584E+00 0.17592746646E+00 0.18273885725E+00
 0.14627321075E+00 0.97093837950E-01 0.76149661166E-01 0.10949488225E+00 0.18428473289E+00
 0.24499806162E+00 0.23808227626E+00 0.16927645731E+00 0.99973529474E-01 0.82837488496E-01
 0.11596577396E+00 0.15910127773E+00 0.17588531740E+00 0.16000229611E+00 0.13778310076E+00
 0.14219162977E+00 0.16113813916E+00 0.19037089277E+00 0.18620526290E+00 0.14759887547E+00
 0.11341922790E+00 0.11498388179E+00 0.15023950291E+00 0.19186662541E+00 0.20448488837E+00
 0.16918105879E+00 0.10949488225E+00 0.79769508778E-01 0.10949488225E+00 0.16918105879E+00
 0.20448488837E+00 0.19186662541E+00 0.15023950291E+00 0.11498388179E+00 0.11341922790E+00
 0.14759887547E+00 0.18620526290E+00 0.19037089277E+00 0.16113813916E+00 0.14443326729E+00
 0.13778310076E+00 0.16000229611E+00 0.17588531740E+00 0.15910127773E+00 0.11596577396E+00
 0.82837488496E-01 0.99973529474E-01 0.16927645731E+00 0.23808227626E+00 0.24499806163E+00
 0.18428473289E+00 0.10949488225E+00 0.76149661166E-01 0.97093837950E-01 0.14627321075E+00
 0.18273885725E+00 0.17592746646E+00 0.13373593584E+00 0.10475723170E+00 0.12805786638E+00
 0.18179463875E+00 0.20703529734E+00 0.18192858600E+00 0.17495210749E+00 0.14993457228E+00
 0.14263457923E+00 0.14667798948E+00 0.13999694694E+00 0.11052704302E+00 0.81673501486E-01
 0.96832454288E-01 0.16699768195E+00 0.24763010176E+00 0.28004215297E+00 0.24499806162E+00
 0.16918105879E+00 0.97093837950E-01 0.66342739356E-01 0.87952409157E-01 0.13224008462E+00
 0.15018851794E+00 0.12702490608E+00 0.10151465747E+00 0.11644260242E+00 0.16465523537E+00
 0.20209260309E+00 0.20161608407E+00 0.26343099100E+00 0.22340236002E+00 0.15380471116E+00
 0.10152228106E+00 0.90133797641E-01 0.10983998750E+00 0.14321633139E+00 0.18140737659E+00
 0.21684102683E+00 0.24014780658E+00 0.24763010176E+00 0.23808227626E+00 0.20448488837E+00
 0.14627321075E+00 0.87952409157E-01 0.64027857521E-01 0.80524531189E-01 0.10794310714E+00
 0.11732233857E+00 0.11023249430E+00 0.11048674787E+00 0.13829551092E+00 0.19284413318E+00
 0.24749773951E+00 0.37744569517E+00 0.32299937696E+00 0.18275993669E+00 0.60941997877E-01
 0.40879672105E-01 0.12375878196E+00 0.23958113152E+00 0.30536292677E+00 0.28591495428E+00
 0.21684102683E+00 0.16699768195E+00 0.16927645731E+00 0.19186662541E+00 0.18273885725E+00
 0.13224008462E+00 0.80524531189E-01 0.69446449471E-01 0.98817290401E-01 0.12974470627E+00
 0.12720080493E+00 0.10232959369E+00 0.11021580919E+00 0.19153575401E+00 0.31206442451E+00
 0.42133214424E+00 0.36465134471E+00 0.19920211163E+00 0.50481773820E-01 0.28886345478E-01
 0.14241028881E+00 0.29432640770E+00 0.36382798604E+00 0.30536292677E+00 0.18140737659E+00
 0.96832454288E-01 0.99973529474E-01 0.15023950291E+00 0.17592746646E+00 0.15018851794E+00
 0.10794310714E+00 0.98817290401E-01 0.13065596027E+00 0.15999118755E+00 0.14226685483E+00
 0.93610036859E-01 0.89436867182E-01 0.18394862492E+00 0.33375499537E+00 0.31669335437E+00
 0.28217407940E+00 0.17436767782E+00 0.76245183322E-01 0.64868387955E-01 0.14785087472E+00
 0.25421120882E+00 0.29432640770E+00 0.23958113152E+00 0.14321633139E+00 0.81673501486E-01
 0.82837488496E-01 0.11498388179E+00 0.13373593584E+00 0.12702490608E+00 0.11732233857E+00
 0.12974470627E+00 0.15999118755E+00 0.17394588016E+00 0.14557878276E+00 0.96764419250E-01
 0.86896329775E-01 0.15141270678E+00 0.25509682275E+00 0.97804047986E-01 0.10484835226E+00
 0.11475749049E+00 0.12098649627E+00 0.12683511187E+00 0.13815477122E+00 0.14785087472E+00
 0.14241028881E+00 0.12375878196E+00 0.10983998750E+00 0.11052704302E+00 0.11596577396E+00
 0.11341922790E+00 0.10475723170E+00 0.10151465747E+00 0.11023249430E+00 0.12720080493E+00
 0.14226685483E+00 0.14557878276E+00 0.13547532315E+00 0.12047735381E+00 0.10962813096E+00