CoMonolayer
  1.00000000000000
    2.508300    0.000000    0.000000
    1.254150    2.172252    0.000000
    0.000000    0.000000   20.000000
    Co
     1
Direct
  0.000000  0.000000  0.500000

  4  4  6
   6.87537468408E+00   5.48959007940E+00   2.44779670013E+00  -2.12804629834E-02  -6.17150908584E-01
   2.61487904658E-01   1.41132006114E+00   1.99634787789E+00   1.89976152019E+00   1.41856039909E+00
   8.97783617304E-01   5.48027180876E-01   4.31069293396E-01   5.48027180876E-01   8.97783617304E-01
   1.41856039909E+00   1.89976152019E+00   1.99634787789E+00   1.41132006114E+00   2.61487904658E-01
  -6.17150908584E-01  -2.12804629834E-02   2.44779670013E+00   5.48959007940E+00   5.48959007940E+00
   4.19048464436E+00   1.82113743462E+00   2.14835048033E-02  -3.89696406848E-01   2.44679832440E-01
   1.09073857399E+00   1.55757127588E+00   1.54164424585E+00   1.26113065417E+00   9.58301595020E-01
   7.25703476512E-01   5.69861427324E-01   5.47680297304E-01   7.43002092336E-01   1.13162402153E+00
   1.53137147971E+00   1.65477265439E+00   1.24068110362E+00   3.64509196156E-01  -2.68303934895E-01
   3.31101852172E-01   2.37598913530E+00   4.67357541560E+00   2.44779670013E+00   1.82113743462E+00
   9.67658323828E-01   3.56545232176E-01   1.60734196034E-01   3.02573088552E-01   5.78624755324E-01
   7.77066773196E-01   8.24195587488E-01   8.14677125892E-01   8.39284276628E-01   8.53733414856E-01
   7.85284757068E-01   6.73914631908E-01   6.16938889000E-01   6.45796698960E-01   7.19462035460E-01
   7.57975893556E-01   6.59780661680E-01   4.32278615076E-01   3.47299893080E-01   7.57858294452E-01
   1.62248626277E+00   2.37598913530E+00  -2.12804629834E-02   2.14835048033E-02   3.56545232176E-01
   5.92340415688E-01   5.35720211600E-01   3.54495841952E-01   2.67477786402E-01   2.91990596464E-01
   3.51060665480E-01   4.37832426640E-01   5.70328557568E-01   7.01675167984E-01   7.61749713256E-01
   7.19226222904E-01   5.68017340884E-01   3.30430151044E-01   9.85245342172E-02   2.24397617968E-04
   1.02058200580E-01   3.74747228716E-01   7.06758652488E-01   8.99270920128E-01   7.57858294452E-01
   3.31101852172E-01
  4  4  6
   7.21250800620E+00   5.85892413120E+00   2.89147774384E+00   4.89806106188E-01  -8.37358996264E-02
   7.71004874080E-01   1.88092387605E+00   2.44290217615E+00   2.35090989073E+00   1.88936284247E+00
   1.38528691725E+00   1.04230898041E+00   9.26385158524E-01   1.04230898041E+00   1.38528691725E+00
   1.88936284247E+00   2.35090989073E+00   2.44290217615E+00   1.88092387605E+00   7.71004874080E-01
  -8.37358996264E-02   4.89806106188E-01   2.89147774384E+00   5.85892413120E+00   5.85892413120E+00
   4.58980426184E+00   2.28086525296E+00   5.32693952644E-01   1.36347605061E-01   7.50857399880E-01
   1.56675948391E+00   2.01701074148E+00   2.00414523344E+00   1.73617938544E+00   1.44343131713E+00
   1.21545904511E+00   1.06239185755E+00   1.04193824865E+00   1.23273728088E+00   1.60709601777E+00
   1.99030363246E+00   2.11097340927E+00   1.71746793980E+00   8.74185531184E-01   2.58551014487E-01
   8.36294053756E-01   2.82478548436E+00   5.06421818616E+00   2.89147774384E+00   2.28086525296E+00
   1.45363446483E+00   8.62527312528E-01   6.70807139156E-01   8.03520320008E-01   1.06758367699E+00
   1.25963221633E+00   1.30693199594E+00   1.29982992157E+00   1.32556012963E+00   1.34023118656E+00
   1.27312051992E+00   1.16386460324E+00   1.10678087694E+00   1.13173961589E+00   1.20115576790E+00
   1.24150682191E+00   1.15384268611E+00   9.39414709016E-01   8.58200784560E-01   1.25547045823E+00
   2.09429211676E+00   2.82478548436E+00   4.89806106188E-01   5.32693952644E-01   8.62527312528E-01
   1.09185128632E+00   1.03165381136E+00   8.50749793012E-01   7.65722872600E-01   7.90977531540E-01
   8.48428549836E-01   9.32219396864E-01   1.06188053320E+00   1.19113349510E+00   1.24977781376E+00
   1.20697411391E+00   1.05801774742E+00   8.26064893640E-01   6.01664898296E-01   5.08926270860E-01
   6.10867201028E-01   8.78164864584E-01   1.20340294124E+00   1.39317059336E+00   1.25547045823E+00
   3.93176560028E+00

