    1    1    1    2
  0.1089732E+03  0.2508300E-09  0.2508300E-09  0.2000000E-08  0.5000000E-15
  1.000000000000000E-004
  CAR 
 CoMonolayer                             
      9     65     27
 
  0.0000000E+00  0.0000000E+00  0.0000000E+00  0.1600000E-02
    1      -10.128206     -9.857677   1.000000   1.000000
    2       -7.063953     -5.356182   1.000000   1.000000
    3       -6.672010     -4.929437   1.000000   0.999952
    4       -6.671996     -4.929428   1.000000   0.999952
    5       -5.818962     -3.808212   1.000000   0.000028
    6       -5.818938     -3.638384   1.000000   0.000000
    7       -3.907333     -3.638373   0.000441   0.000000
    8       -0.576368      0.621370   0.000000   0.000000
    9       -0.209257      1.628767   0.000000   0.000000
   10        0.278392      3.320513   0.000000   0.000000
   11        1.481157      3.860645   0.000000   0.000000
   12        1.842245      4.884278   0.000000   0.000000
   13        3.954227      6.543267   0.000000   0.000000
   14        4.314655      6.783809   0.000000   0.000000
   15        7.213983      9.525756   0.000000   0.000000
   16        7.637826     10.085097   0.000000   0.000000
   17       11.288631     13.731617   0.000000   0.000000
   18       11.700913     13.912892   0.000000   0.000000
   19       16.041764     18.291831   0.000000   0.000000
   20       16.567173     18.859756   0.000000   0.000000
   21       19.368312     19.063780   0.000000   0.000000
   22       21.571457     23.736807   0.000000   0.000000
   23       22.046000     23.766846   0.000000   0.000000
   24       23.090940     23.767111   0.000000   0.000000
   25       23.091337     24.279307   0.000000   0.000000
   26       24.373120     24.602092   0.000000   0.000000
   27       24.373617     24.602263   0.000000   0.000000
 
  0.4000000E-01 -0.2073394E-17  0.0000000E+00  0.9600000E-02
    1      -10.071635     -9.799951   1.000000   1.000000
    2       -7.048891     -5.337733   1.000000   1.000000
    3       -6.689155     -4.951241   1.000000   0.999975
    4       -6.648243     -4.903131   1.000000   0.999899
    5       -5.885304     -4.041717   1.000000   0.008769
    6       -5.823737     -3.644043   1.000000   0.000000
    7       -3.804983     -3.373461   0.000026   0.000000
    8       -0.526369      0.667291   0.000000   0.000000
    9       -0.156703      1.685801   0.000000   0.000000
   10        0.328393      3.370080   0.000000   0.000000
   11        1.534144      3.913321   0.000000   0.000000
   12        1.890987      4.932662   0.000000   0.000000
   13        4.007656      6.596818   0.000000   0.000000
   14        4.362684      6.831482   0.000000   0.000000
   15        7.267424      9.579401   0.000000   0.000000
   16        7.685202     10.132294   0.000000   0.000000
   17       11.341973     13.784971   0.000000   0.000000
   18       11.747345     13.958711   0.000000   0.000000
   19       16.094909     18.344691   0.000000   0.000000
   20       16.611415     18.813543   0.000000   0.000000
   21       19.058500     18.903975   0.000000   0.000000
   22       21.620102     22.667963   0.000000   0.000000
   23       21.957146     22.815683   0.000000   0.000000
   24       22.269200     23.771055   0.000000   0.000000
   25       22.285072     24.331273   0.000000   0.000000
   26       25.238882     25.323620   0.000000   0.000000
   27       25.292908     25.607544   0.000000   0.000000
 
  0.8000000E-01 -0.4146789E-17  0.0000000E+00  0.9600000E-02
    1       -9.904030     -9.628208   1.000000   1.000000
    2       -7.004218     -5.283992   1.000000   1.000000
    3       -6.737565     -5.013108   1.000000   0.999996
    4       -6.577885     -4.825125   1.000000   0.999223
    5       -6.052570     -4.317631   1.000000   0.335693
    6       -5.837666     -3.660554   1.000000   0.000000
    7       -3.528493     -3.001363   0.000000   0.000000
    8       -0.376333      0.805253   0.000000   0.000000
    9        0.000733      1.855897   0.000000   0.000000
   10        0.478450      3.518908   0.000000   0.000000
   11        1.692868      4.071190   0.000000   0.000000
   12        2.037294      5.077983   0.000000   0.000000
   13        4.167700      6.757272   0.000000   0.000000
   14        4.506830      6.974557   0.000000   0.000000
   15        7.427585      9.740139   0.000000   0.000000
   16        7.827382     10.273966   0.000000   0.000000
   17       11.501889     13.945049   0.000000   0.000000
   18       11.886386     14.095766   0.000000   0.000000
   19       16.254235     17.989841   0.000000   0.000000
   20       16.739513     18.503068   0.000000   0.000000
   21       18.049006     19.034566   0.000000   0.000000
   22       21.056498     21.509043   0.000000   0.000000
   23       21.119386     21.605661   0.000000   0.000000
   24       21.754199     23.137609   0.000000   0.000000
   25       22.288983     23.949570   0.000000   0.000000
   26       23.165208     24.470899   0.000000   0.000000
   27       25.276731     25.654724   0.000000   0.000000
 
  0.1200000E+00  0.4188157E-17  0.0000000E+00  0.9600000E-02
    1       -9.632744     -9.347180   1.000000   1.000000
    2       -6.931589     -5.205616   1.000000   1.000000
    3       -6.807393     -5.098587   1.000000   1.000000
    4       -6.464241     -4.698958   1.000000   0.988461
    5       -6.267246     -4.574378   1.000000   0.917923
    6       -5.859867     -3.686865   1.000000   0.000001
    7       -3.128281     -2.578791   0.000000   0.000000
    8       -0.126176      1.035813   0.000000   0.000000
    9        0.262418      2.136252   0.000000   0.000000
   10        0.728665      3.766928   0.000000   0.000000
   11        1.956596      4.333714   0.000000   0.000000
   12        2.281346      5.320263   0.000000   0.000000
   13        4.433594      7.023756   0.000000   0.000000
   14        4.747225      7.213203   0.000000   0.000000
   15        7.693777     10.007325   0.000000   0.000000
   16        8.064162     10.509742   0.000000   0.000000
   17       11.767806     14.211211   0.000000   0.000000
   18       12.116354     14.320790   0.000000   0.000000
   19       16.409097     16.611762   0.000000   0.000000
   20       16.519274     18.765542   0.000000   0.000000
   21       17.024747     19.249290   0.000000   0.000000
   22       19.977772     20.442537   0.000000   0.000000
   23       20.419944     20.746059   0.000000   0.000000
   24       20.963384     21.063749   0.000000   0.000000
   25       22.067026     23.944631   0.000000   0.000000
   26       22.503284     24.631251   0.000000   0.000000
   27       24.108011     24.803615   0.000000   0.000000
 
  0.1600000E+00 -0.8293578E-17  0.0000000E+00  0.9600000E-02
    1       -9.274514     -8.966442   1.000000   1.000000
    2       -6.882587     -5.235148   1.000000   1.000000
    3       -6.829419     -5.064526   1.000000   0.999999
    4       -6.493851     -4.810763   1.000000   0.998903
    5       -6.312362     -4.529865   1.000000   0.859143
    6       -5.888902     -3.721248   1.000000   0.000002
    7       -2.635346     -2.100188   0.000000   0.000000
    8        0.224233      1.359832   0.000000   0.000000
    9        0.627441      2.523114   0.000000   0.000000
   10        1.079189      4.114202   0.000000   0.000000
   11        2.324278      4.699884   0.000000   0.000000
   12        2.623381      5.659548   0.000000   0.000000
   13        4.804159      7.395058   0.000000   0.000000
   14        5.083907      7.547353   0.000000   0.000000
   15        8.064941     10.379771   0.000000   0.000000
   16        8.394690     10.838021   0.000000   0.000000
   17       12.138790     14.553657   0.000000   0.000000
   18       12.427455     14.582561   0.000000   0.000000
   19       14.649034     15.019390   0.000000   0.000000
   20       16.889173     18.990368   0.000000   0.000000
   21       17.310476     19.176031   0.000000   0.000000
   22       18.898180     19.346110   0.000000   0.000000
   23       18.933698     19.531844   0.000000   0.000000
   24       19.917439     20.208190   0.000000   0.000000
   25       21.931659     23.073585   0.000000   0.000000
   26       22.291922     23.297200   0.000000   0.000000
   27       22.342141     24.231585   0.000000   0.000000
 
  0.2000000E+00 -0.1559994E-16  0.0000000E+00  0.9600000E-02
    1       -8.866949     -8.504430   1.000000   1.000000
    2       -6.922299     -5.332714   1.000000   1.000000
    3       -6.713559     -5.025977   1.000000   0.999998
    4       -6.700496     -4.932261   1.000000   0.999956
    5       -6.129514     -4.325522   1.000000   0.356272
    6       -5.922836     -3.761398   1.000000   0.000007
    7       -2.062942     -1.558561   0.000000   0.000000
    8        0.675013      1.778248   0.000000   0.000000
    9        1.094833      3.012621   0.000000   0.000000
   10        1.530172      4.560777   0.000000   0.000000
   11        2.794701      5.168825   0.000000   0.000000
   12        3.063493      6.095551   0.000000   0.000000
   13        5.277938      7.869631   0.000000   0.000000
   14        5.516363      7.976052   0.000000   0.000000
   15        8.539546     10.855827   0.000000   0.000000
   16        8.814907     11.247625   0.000000   0.000000
   17       12.525944     13.126874   0.000000   0.000000
   18       12.613209     15.057371   0.000000   0.000000
   19       13.129683     15.100789   0.000000   0.000000
   20       16.972167     17.083959   0.000000   0.000000
   21       17.364166     18.325296   0.000000   0.000000
   22       17.709218     19.505344   0.000000   0.000000
   23       17.894026     19.605313   0.000000   0.000000
   24       19.253549     19.959673   0.000000   0.000000
   25       20.029686     21.326723   0.000000   0.000000
   26       20.222504     21.988133   0.000000   0.000000
   27       20.773410     22.740636   0.000000   0.000000
 
  0.2400000E+00  0.8376315E-17  0.0000000E+00  0.9600000E-02
    1       -8.491991     -7.998507   1.000000   1.000000
    2       -6.916597     -5.381695   1.000000   1.000000
    3       -6.873034     -5.218928   1.000000   1.000000
    4       -6.517778     -4.783625   1.000000   0.997953
    5       -5.959567     -4.096154   1.000000   0.023278
    6       -5.925206     -3.804825   1.000000   0.000026
    7       -1.415534     -0.948011   0.000000   0.000000
    8        1.226124      2.291560   0.000000   0.000000
    9        1.663610      3.601223   0.000000   0.000000
   10        2.081554      5.106018   0.000000   0.000000
   11        3.366531      5.739221   0.000000   0.000000
   12        3.601106      6.626241   0.000000   0.000000
   13        5.853129      8.445394   0.000000   0.000000
   14        6.041714      8.492769   0.000000   0.000000
   15        9.115274     11.214952   0.000000   0.000000
   16        9.294574     11.432320   0.000000   0.000000
   17       10.945427     11.927326   0.000000   0.000000
   18       13.186060     15.223048   0.000000   0.000000
   19       13.446494     15.595996   0.000000   0.000000
   20       15.110657     15.648017   0.000000   0.000000
   21       16.975389     17.388668   0.000000   0.000000
   22       17.695440     18.381703   0.000000   0.000000
   23       17.937234     19.910804   0.000000   0.000000
   24       18.190548     20.084123   0.000000   0.000000
   25       18.247140     20.216262   0.000000   0.000000
   26       18.501485     20.621377   0.000000   0.000000
   27       19.348321     21.789932   0.000000   0.000000
 
  0.2800000E+00 -0.2668562E-16  0.0000000E+00  0.9600000E-02
    1       -8.264193     -7.524153   1.000000   1.000000
    2       -7.097154     -5.387951   1.000000   1.000000
    3       -6.715001     -5.300124   1.000000   1.000000
    4       -6.190170     -4.631044   1.000000   0.963427
    5       -5.996661     -3.854367   1.000000   0.000108
    6       -5.710976     -3.848640   1.000000   0.000092
    7       -0.694161     -0.264305   0.000000   0.000000
    8        1.877051      2.898459   0.000000   0.000000
    9        2.332887      4.285783   0.000000   0.000000
   10        2.732713      5.747176   0.000000   0.000000
   11        4.038377      6.409702   0.000000   0.000000
   12        4.233162      7.239512   0.000000   0.000000
   13        6.527367      8.990817   0.000000   0.000000
   14        6.643186      9.118890   0.000000   0.000000
   15        8.996532      9.728255   0.000000   0.000000
   16        9.787087     12.094793   0.000000   0.000000
   17       10.137501     12.454798   0.000000   0.000000
   18       13.297289     13.498360   0.000000   0.000000
   19       13.913804     16.127471   0.000000   0.000000
   20       14.035345     16.317000   0.000000   0.000000
   21       15.879614     16.546293   0.000000   0.000000
   22       16.152612     16.821675   0.000000   0.000000
   23       16.370794     18.307093   0.000000   0.000000
   24       16.713954     19.258850   0.000000   0.000000
   25       18.016081     19.979223   0.000000   0.000000
   26       18.081351     20.390865   0.000000   0.000000
   27       18.612955     20.749402   0.000000   0.000000
 
  0.3200000E+00 -0.1658716E-16  0.0000000E+00  0.9600000E-02
    1       -8.202984     -7.192077   1.000000   1.000000
    2       -7.251640     -5.531482   1.000000   1.000000
    3       -6.551862     -4.979541   1.000000   0.999990
    4       -6.031883     -4.483619   1.000000   0.773213
    5       -5.602271     -3.890207   1.000000   0.000284
    6       -5.499977     -3.614819   1.000000   0.000000
    7        0.100557      0.494572   0.000000   0.000000
    8        2.625245      3.590311   0.000000   0.000000
    9        3.101730      5.062656   0.000000   0.000000
   10        3.480394      6.459715   0.000000   0.000000
   11        4.808412      7.177846   0.000000   0.000000
   12        4.941323      7.611752   0.000000   0.000000
   13        6.993348      8.267910   0.000000   0.000000
   14        7.295927      9.876327   0.000000   0.000000
   15        7.801231      9.934887   0.000000   0.000000
   16       10.520336     11.797827   0.000000   0.000000
   17       10.767925     12.943836   0.000000   0.000000
   18       11.705099     13.141872   0.000000   0.000000
   19       14.079183     15.041963   0.000000   0.000000
   20       14.552276     15.810529   0.000000   0.000000
   21       14.703741     16.549100   0.000000   0.000000
   22       14.706848     16.918641   0.000000   0.000000
   23       15.019757     17.108428   0.000000   0.000000
   24       15.437515     17.880420   0.000000   0.000000
   25       16.317882     18.664490   0.000000   0.000000
   26       16.388523     18.984592   0.000000   0.000000
   27       18.406387     19.907552   0.000000   0.000000
 
  0.3600000E+00 -0.1354277E-16  0.0000000E+00  0.9600000E-02
    1       -8.228883     -7.044776   1.000000   1.000000
    2       -7.377641     -5.648101   1.000000   1.000000
    3       -6.428107     -4.424356   1.000000   0.629458
    4       -6.063056     -4.315501   1.000000   0.330220
    5       -5.306584     -3.926966   1.000000   0.000720
    6       -4.804247     -3.393908   0.998722   0.000000
    7        0.965827      1.327144   0.000000   0.000000
    8        3.454200      4.310073   0.000000   0.000000
    9        3.968677      5.924060   0.000000   0.000000
   10        4.295877      6.244383   0.000000   0.000000
   11        5.359250      7.429500   0.000000   0.000000
   12        5.672707      8.034138   0.000000   0.000000
   13        6.166274      8.897715   0.000000   0.000000
   14        8.137185     10.142163   0.000000   0.000000
   15        8.345273     10.724664   0.000000   0.000000
   16       10.052806     10.905197   0.000000   0.000000
   17       11.515579     13.296671   0.000000   0.000000
   18       11.543057     13.785719   0.000000   0.000000
   19       12.451502     14.098533   0.000000   0.000000
   20       12.925396     14.926908   0.000000   0.000000
   21       13.283179     15.195461   0.000000   0.000000
   22       14.636129     16.236739   0.000000   0.000000
   23       14.694138     16.981929   0.000000   0.000000
   24       14.842885     17.482749   0.000000   0.000000
   25       15.553006     17.870704   0.000000   0.000000
   26       15.615074     17.985065   0.000000   0.000000
   27       17.043933     19.068039   0.000000   0.000000
 
  0.4000000E+00 -0.3119988E-16  0.0000000E+00  0.9600000E-02
    1       -8.279549     -7.012315   1.000000   1.000000
    2       -7.473437     -5.736586   1.000000   1.000000
    3       -6.336760     -4.259511   1.000000   0.201798
    4       -6.088218     -3.956612   1.000000   0.001455
    5       -5.145204     -3.612882   1.000000   0.000000
    6       -3.897345     -3.208483   0.000342   0.000000
    7        1.891643      2.224331   0.000000   0.000000
    8        3.809134      4.374776   0.000000   0.000000
    9        4.611050      5.735132   0.000000   0.000000
   10        4.929392      6.829941   0.000000   0.000000
   11        5.387660      8.335288   0.000000   0.000000
   12        6.611586      8.649038   0.000000   0.000000
   13        6.866026      9.209065   0.000000   0.000000
   14        8.438933      9.792457   0.000000   0.000000
   15        9.234926     11.458811   0.000000   0.000000
   16        9.331388     11.783394   0.000000   0.000000
   17       10.850837     12.056454   0.000000   0.000000
   18       11.341128     13.355193   0.000000   0.000000
   19       11.679413     14.598337   0.000000   0.000000
   20       12.451594     14.716104   0.000000   0.000000
   21       12.478949     14.782857   0.000000   0.000000
   22       13.101283     14.996394   0.000000   0.000000
   23       13.237618     15.432010   0.000000   0.000000
   24       14.381821     16.154314   0.000000   0.000000
   25       15.502038     17.871727   0.000000   0.000000
   26       15.572174     18.130342   0.000000   0.000000
   27       16.527117     18.536862   0.000000   0.000000
 
  0.4400000E+00 -0.2110141E-16  0.0000000E+00  0.9600000E-02
    1       -8.324634     -7.021019   1.000000   1.000000
    2       -7.537926     -5.796102   1.000000   1.000000
    3       -6.275255     -4.183429   1.000000   0.084846
    4       -6.105907     -3.977447   1.000000   0.002330
    5       -5.029051     -3.074377   0.999998   0.000000
    6       -2.993537     -2.841873   0.000000   0.000000
    7        2.704817      3.151861   0.000000   0.000000
    8        2.842016      3.401035   0.000000   0.000000
    9        5.564861      6.543573   0.000000   0.000000
   10        5.949646      7.128548   0.000000   0.000000
   11        6.406502      8.270737   0.000000   0.000000
   12        7.075046      9.335732   0.000000   0.000000
   13        7.871238     10.129838   0.000000   0.000000
   14        7.901223     10.246766   0.000000   0.000000
   15        9.357265     10.994488   0.000000   0.000000
   16        9.839624     11.879392   0.000000   0.000000
   17       10.110837     12.671963   0.000000   0.000000
   18       10.318383     12.884972   0.000000   0.000000
   19       10.398977     13.281883   0.000000   0.000000
   20       11.603266     13.956868   0.000000   0.000000
   21       11.716333     14.386770   0.000000   0.000000
   22       13.471280     14.662633   0.000000   0.000000
   23       13.524138     15.838190   0.000000   0.000000
   24       14.066409     15.912005   0.000000   0.000000
   25       14.152361     16.611099   0.000000   0.000000
   26       14.206623     16.714158   0.000000   0.000000
   27       17.136438     18.874486   0.000000   0.000000
 
  0.4800000E+00  0.1675263E-16  0.0000000E+00  0.9600000E-02
    1       -8.350028     -7.032729   1.000000   1.000000
    2       -7.570286     -5.825943   1.000000   1.000000
    3       -6.244141     -4.144818   1.000000   0.049860
    4       -6.115036     -3.988195   1.000000   0.002946
    5       -4.968190     -3.003878   0.999985   0.000000
    6       -2.328517     -2.298489   0.000000   0.000000
    7        1.880064      2.692991   0.000000   0.000000
    8        3.647428      3.945428   0.000000   0.000000
    9        6.066972      6.327520   0.000000   0.000000
   10        6.705246      7.551272   0.000000   0.000000
   11        7.257517      9.011493   0.000000   0.000000
   12        7.531811      9.229005   0.000000   0.000000
   13        8.005173     10.545919   0.000000   0.000000
   14        8.486325     10.573577   0.000000   0.000000
   15        8.758382     11.319008   0.000000   0.000000
   16        8.965127     11.722220   0.000000   0.000000
   17        9.124282     12.131806   0.000000   0.000000
   18       10.230121     12.585020   0.000000   0.000000
   19       10.303416     13.265805   0.000000   0.000000
   20       11.453620     13.960539   0.000000   0.000000
   21       11.474096     14.038549   0.000000   0.000000
   22       12.743381     14.218909   0.000000   0.000000
   23       12.758595     15.169181   0.000000   0.000000
   24       13.906111     15.319123   0.000000   0.000000
   25       14.707494     17.030297   0.000000   0.000000
   26       14.720649     17.115230   0.000000   0.000000
   27       15.969747     18.244719   0.000000   0.000000
 
  0.8000000E-01  0.4000000E-01  0.0000000E+00  0.9600000E-02
    1       -9.959498     -9.685193   1.000000   1.000000
    2       -7.019012     -5.301465   1.000000   1.000000
    3       -6.722916     -4.994143   1.000000   0.999993
    4       -6.600256     -4.850103   1.000000   0.999582
    5       -6.000767     -4.245197   1.000000   0.174527
    6       -5.833430     -3.655588   1.000000   0.000000
    7       -3.616536     -3.105681   0.000000   0.000000
    8       -0.426352      0.759233   0.000000   0.000000
    9       -0.051710      1.799369   0.000000   0.000000
   10        0.428420      3.469289   0.000000   0.000000
   11        1.640003      4.018591   0.000000   0.000000
   12        1.988515      5.029528   0.000000   0.000000
   13        4.114401      6.703849   0.000000   0.000000
   14        4.458762      6.926857   0.000000   0.000000
   15        7.374229      9.686585   0.000000   0.000000
   16        7.779992     10.226737   0.000000   0.000000
   17       11.448614     13.891711   0.000000   0.000000
   18       11.840116     14.050183   0.000000   0.000000
   19       16.201149     18.297560   0.000000   0.000000
   20       16.698657     18.450289   0.000000   0.000000
   21       18.428870     18.987059   0.000000   0.000000
   22       20.735478     21.296298   0.000000   0.000000
   23       21.713575     22.509707   0.000000   0.000000
   24       22.087152     23.791850   0.000000   0.000000
   25       22.220219     24.025725   0.000000   0.000000
   26       24.141163     24.419073   0.000000   0.000000
   27       24.425904     24.894830   0.000000   0.000000
 
  0.1200000E+00  0.4000000E-01  0.0000000E+00  0.1920000E-01
    1       -9.739610     -9.458612   1.000000   1.000000
    2       -6.960384     -5.232268   1.000000   1.000000
    3       -6.785266     -5.073503   1.000000   1.000000
    4       -6.505455     -4.745670   1.000000   0.995372
    5       -6.187286     -4.484820   1.000000   0.775762
    6       -5.852543     -3.678319   1.000000   0.000000
    7       -3.281613     -2.733745   0.000000   0.000000
    8       -0.226249      0.943512   0.000000   0.000000
    9        0.157844      2.024567   0.000000   0.000000
   10        0.628561      3.667708   0.000000   0.000000
   11        1.851221      4.228805   0.000000   0.000000
   12        2.183704      5.223327   0.000000   0.000000
   13        4.327369      6.917298   0.000000   0.000000
   14        4.651058      7.117740   0.000000   0.000000
   15        7.587417      9.900556   0.000000   0.000000
   16        7.969512     10.415521   0.000000   0.000000
   17       11.661538     14.104819   0.000000   0.000000
   18       12.024899     14.232016   0.000000   0.000000
   19       16.413339     17.255761   0.000000   0.000000
   20       16.847658     18.660810   0.000000   0.000000
   21       17.233342     19.125889   0.000000   0.000000
   22       19.378711     19.920416   0.000000   0.000000
   23       21.745365     22.081029   0.000000   0.000000
   24       21.791892     22.097254   0.000000   0.000000
   25       22.206373     23.365806   0.000000   0.000000
   26       22.410497     24.310092   0.000000   0.000000
   27       23.346138     24.595822   0.000000   0.000000
 
  0.1600000E+00  0.4000000E-01  0.0000000E+00  0.1920000E-01
    1       -9.422938     -9.126930   1.000000   1.000000
    2       -6.876875     -5.195723   1.000000   1.000000
    3       -6.860664     -5.115523   1.000000   1.000000
    4       -6.402156     -4.717914   1.000000   0.991940
    5       -6.367621     -4.594368   1.000000   0.937310
    6       -5.879642     -3.710554   1.000000   0.000001
    7       -2.839259     -2.294624   0.000000   0.000000
    8        0.074051      1.220876   0.000000   0.000000
    9        0.471195      2.358132   0.000000   0.000000
   10        0.928959      3.965394   0.000000   0.000000
   11        2.166932      4.543164   0.000000   0.000000
   12        2.476794      5.514184   0.000000   0.000000
   13        4.645611      7.236227   0.000000   0.000000
   14        4.939679      7.404252   0.000000   0.000000
   15        7.906134     10.220421   0.000000   0.000000
   16        8.253396     10.697975   0.000000   0.000000
   17       11.980044     14.423676   0.000000   0.000000
   18       12.298085     14.494238   0.000000   0.000000
   19       15.543729     15.778124   0.000000   0.000000
   20       16.730850     18.661073   0.000000   0.000000
   21       17.138887     18.972479   0.000000   0.000000
   22       18.318425     19.509226   0.000000   0.000000
   23       19.977103     20.063281   0.000000   0.000000
   24       21.254263     21.538125   0.000000   0.000000
   25       22.066302     22.489234   0.000000   0.000000
   26       22.597767     24.092762   0.000000   0.000000
   27       22.639718     24.507386   0.000000   0.000000
 
  0.2000000E+00  0.4000000E-01  0.0000000E+00  0.1920000E-01
    1       -9.033881     -8.703153   1.000000   1.000000
    2       -6.932198     -5.302165   1.000000   1.000000
    3       -6.761600     -4.996344   1.000000   0.999994
    4       -6.619688     -4.935176   1.000000   0.999960
    5       -6.191788     -4.402765   1.000000   0.570540
    6       -5.913042     -3.750285   1.000000   0.000005
    7       -2.310217     -1.790431   0.000000   0.000000
    8        0.474684      1.592267   0.000000   0.000000
    9        0.887391      2.796252   0.000000   0.000000
   10        1.329748      4.362393   0.000000   0.000000
   11        2.585988      4.960743   0.000000   0.000000
   12        2.867982      5.901996   0.000000   0.000000
   13        5.067820      7.659259   0.000000   0.000000
   14        5.324495      7.786067   0.000000   0.000000
   15        8.329095     10.644824   0.000000   0.000000
   16        8.629826     11.070324   0.000000   0.000000
   17       12.402947     14.000928   0.000000   0.000000
   18       12.624726     14.847049   0.000000   0.000000
   19       13.779208     14.927578   0.000000   0.000000
   20       17.152286     17.737955   0.000000   0.000000
   21       17.186195     18.072243   0.000000   0.000000
   22       17.699770     19.398814   0.000000   0.000000
   23       17.977011     19.823350   0.000000   0.000000
   24       20.481567     20.807862   0.000000   0.000000
   25       21.109266     21.647513   0.000000   0.000000
   26       21.270271     22.307698   0.000000   0.000000
   27       21.496668     23.207225   0.000000   0.000000
 
  0.2400000E+00  0.4000000E-01  0.0000000E+00  0.1920000E-01
    1       -8.627970     -8.212879   1.000000   1.000000
    2       -6.945828     -5.390288   1.000000   1.000000
    3       -6.826084     -5.133021   1.000000   1.000000
    4       -6.616722     -4.853363   1.000000   0.999616
    5       -5.982944     -4.179077   1.000000   0.080164
    6       -5.950563     -3.794914   1.000000   0.000019
    7       -1.702990     -1.217560   0.000000   0.000000
    8        0.975724      2.058533   0.000000   0.000000
    9        1.405465      3.335264   0.000000   0.000000
   10        1.831028      4.858501   0.000000   0.000000
   11        3.107135      5.480425   0.000000   0.000000
   12        3.357150      6.385969   0.000000   0.000000
   13        5.592390      8.184601   0.000000   0.000000
   14        5.804243      8.260746   0.000000   0.000000
   15        8.854522     11.171604   0.000000   0.000000
   16        9.089125     11.481807   0.000000   0.000000
   17       11.819499     12.318101   0.000000   0.000000
   18       12.927818     15.357766   0.000000   0.000000
   19       13.231364     15.370901   0.000000   0.000000
   20       16.063110     16.182686   0.000000   0.000000
   21       16.454502     16.887978   0.000000   0.000000
   22       17.677671     19.475831   0.000000   0.000000
   23       18.018171     19.897077   0.000000   0.000000
   24       18.774079     20.251621   0.000000   0.000000
   25       19.258980     20.814806   0.000000   0.000000
   26       19.559529     21.157274   0.000000   0.000000
   27       20.396410     21.325900   0.000000   0.000000
 
  0.2800000E+00  0.4000000E-01  0.0000000E+00  0.1920000E-01
    1       -8.313256     -7.709192   1.000000   1.000000
    2       -7.013494     -5.397543   1.000000   1.000000
    3       -6.841519     -5.308926   1.000000   1.000000
    4       -6.406258     -4.701435   1.000000   0.988979
    5       -5.989802     -3.933205   1.000000   0.000837
    6       -5.741816     -3.841573   1.000000   0.000075
    7       -1.020353     -0.572069   0.000000   0.000000