    2    2    1    1
  0.6525162E+02  0.2469999E-09  0.2469999E-09  0.2470000E-08  0.5000000E-15
  1.000000000000000E-004
  CAR 
 Graphene                                
      8    900     27
 
  0.1666667E-01  0.1666667E-01  0.0000000E+00  0.1111111E-02
    1      -22.516854
    2      -10.623259
    3       -6.106922
    4       -6.094011
    5        0.245549
    6        1.004735
    7        1.239197
    8        1.791409
    9        2.076580
   10        3.127288
   11        3.558956
   12        5.043034
   13        5.242951
   14        5.268063
   15        5.559830
   16        7.468805
   17        8.105634
   18        8.285387
   19        9.352063
   20       10.408885
   21       11.182509
   22       13.846347
   23       14.778965
   24       17.749480
   25       18.884359
   26       19.405944
   27       22.044677
 
  0.5000000E-01  0.1666667E-01  0.0000000E+00  0.1111111E-02
    1      -22.477550
    2      -10.576386
    3       -6.267661
    4       -6.179743
    5        0.298821
    6        1.058811
    7        1.293907
    8        1.845761
    9        2.130956
   10        3.181405
   11        3.612781
   12        5.096734
   13        5.264959
   14        5.435399
   15        5.616942
   16        7.521860
   17        8.148753
   18        8.159997
   19        9.422981
   20       10.460879
   21       11.236479
   22       13.896200
   23       14.832617
   24       17.793405
   25       18.937918
   26       19.533378
   27       22.057726
 
  0.8333333E-01  0.1666667E-01  0.0000000E+00  0.1111111E-02
    1      -22.385939
    2      -10.467233
    3       -6.627186
    4       -6.368844
    5        0.423141
    6        1.184953
    7        1.421567
    8        1.972565
    9        2.257841
   10        3.307645
   11        3.738383
   12        5.221967
   13        5.301509
   14        5.747399
   15        5.813960
   16        7.645370
   17        7.838028
   18        8.286613
   19        9.596575
   20       10.581940
   21       11.362239
   22       14.011745
   23       14.957527
   24       17.892181
   25       19.060825
   26       19.817998
   27       22.024745
 
  0.1166667E+00  0.1666667E-01  0.0000000E+00  0.1111111E-02
    1      -22.242124
    2      -10.296211
    3       -7.154755
    4       -6.638217
    5        0.618519
    6        1.383069
    7        1.622177
    8        2.171770
    9        2.457242
   10        3.505911
   11        3.935683
   12        5.324076
   13        5.418514
   14        5.947837
   15        6.381488
   16        7.369443
   17        7.840196
   18        8.484938
   19        9.883877
   20       10.771493
   21       11.559465
   22       14.191012
   23       15.153124
   24       18.034173
   25       19.250810
   26       20.224164
   27       21.673381
 
  0.1500000E+00  0.1666667E-01  0.0000000E+00  0.1111111E-02
    1      -22.046416
    2      -10.064115
    3       -7.813355
    4       -6.960920
    5        0.884908
    6        1.652974
    7        1.895738
    8        2.443270
    9        2.729140
   10        3.775985
   11        4.204229
   12        5.309685
   13        5.685561
   14        6.217529
   15        6.767520
   16        7.109766
   17        8.104513
   18        8.754347
   19       10.284810
   20       11.028555
   21       11.827798
   22       14.430137
   23       15.418698
   24       18.187110
   25       19.506059
   26       20.677901
   27       20.882850
 
  0.1833333E+00  0.1666667E-01  0.0000000E+00  0.1111111E-02
    1      -21.799131
    2       -9.772051
    3       -8.567126
    4       -7.311569
    5        1.222184
    6        1.994298
    7        2.242244
    8        2.786830
    9        3.073455
   10        4.117228
   11        4.541986
   12        5.253110
   13        5.982532
   14        6.097193
   15        6.557633
   16        7.969466
   17        8.438496
   18        9.094460
   19       10.781763
   20       11.351511
   21       12.166879
   22       14.721434
   23       15.753440
   24       18.249418
   25       19.822537
   26       20.110049
   27       20.976150
 
  0.2166667E+00  0.1666667E-01  0.0000000E+00  0.1111111E-02
    1      -21.500799
    2       -9.421703
    3       -9.385199
    4       -7.668987
    5        1.630120
    6        2.406108
    7        2.661680
    8        3.201711
    9        3.489982
   10        4.525157
   11        4.927384
   12        5.183302
   13        5.256776
   14        6.440929
   15        6.968992
   16        8.841198
   17        8.932157
   18        9.505238
   19       11.342141
   20       11.737496
   21       12.576259
   22       15.047013
   23       16.156284
   24       17.989930
   25       19.738815
   26       20.146630
   27       20.498974
 
  0.2500000E+00  0.1666667E-01  0.0000000E+00  0.1111111E-02
    1      -21.152028
    2      -10.242574
    3       -9.015408
    4       -8.016636
    5        2.108344
    6        2.884392
    7        3.154014
    8        3.681888
    9        3.978002
   10        4.385990
   11        4.999361
   12        5.033308
   13        5.475768
   14        6.920084
   15        7.451820
   16        9.311207
   17        9.959325
   18        9.997010
   19       11.921469
   20       12.181065
   21       13.055114
   22       15.355592
   23       16.625364
   24       17.433051
   25       19.115860
   26       19.669840
   27       20.132997
 
  0.2833333E+00  0.1666667E-01  0.0000000E+00  0.1111111E-02
    1      -20.753708
    2      -11.119505
    3       -8.556650
    4       -8.342005
    5        2.656197
    6        3.300922
    7        3.603375
    8        3.719138
    9        4.267769
   10        4.531115
   11        4.886486
   12        5.582472
   13        6.022482
   14        7.469649
   15        8.005951
   16        9.846127
   17       10.535790
   18       11.051376
   19       12.457259
   20       12.670094
   21       13.601708
   22       15.475263
   23       16.961221
   24       17.151928
   25       17.762660
   26       18.524016
   27       18.631197
 
  0.3166667E+00  0.1666667E-01  0.0000000E+00  0.1111111E-02
    1      -20.307004
    2      -12.000445
    3       -8.635832
    4       -8.050644
    5        2.517353
    6        3.272126
    7        4.099701
    8        4.356108
    9        4.735978
   10        4.892482
   11        5.189542
   12        6.208982
   13        6.649420
   14        8.087627
   15        8.630983
   16       10.441432
   17       11.156038
   18       12.096999
   19       12.868184
   20       13.168904
   21       14.212916
   22       15.137898
   23       16.510066
   24       16.747836
   25       16.999124
   26       17.296558
   27       17.743971
 
  0.3500000E+00  0.1666667E-01  0.0000000E+00  0.1111111E-02
    1      -19.813542
    2      -12.872899
    3       -8.891297
    4       -7.505737
    5        1.607521
    6        3.948843
    7        4.627912
    8        4.790010
    9        5.071006
   10        5.595007
   11        5.889434
   12        6.906413
   13        7.349384
   14        8.771663
   15        9.326273
   16       11.086587
   17       11.842730
   18       12.536811
   19       13.460826
   20       13.501040
   21       14.593734
   22       14.882068
   23       15.365561
   24       15.691466
   25       15.724232
   26       16.498067
   27       16.601916
 
  0.3833333E+00  0.1666667E-01  0.0000000E+00  0.1111111E-02
    1      -19.275990
    2      -13.726135
    3       -9.103445
    4       -6.936155
    5        0.722906
    6        4.451290
    7        4.777983
    8        5.554188
    9        5.853951
   10        6.369545
   11        6.666559
   12        7.672935
   13        8.120760
   14        9.517158
   15       10.090711
   16       11.740405
   17       11.978438
   18       12.606736
   19       13.082898
   20       14.027973
   21       14.260878
   22       14.387792
   23       14.659103
   24       14.710366
   25       15.559384
   26       15.565784
   27       15.699263
 
  0.4166667E+00  0.1666667E-01  0.0000000E+00  0.1111111E-02
    1      -18.699278
    2      -14.549224
    3       -9.268643
    4       -6.368058
    5       -0.096115
    6        4.405107
    7        5.562852
    8        6.386799
    9        6.710615
   10        7.214738
   11        7.516181
   12        8.506007
   13        8.962323
   14       10.309611
   15       10.912665
   16       11.051877
   17       11.861814
   18       12.666654
   19       12.716663
   20       13.145529
   21       13.385200
   22       13.438087
   23       14.167862
   24       14.621365
   25       15.125475
   26       15.397690
   27       16.135299
 
  0.4500000E+00  0.1666667E-01  0.0000000E+00  0.1111111E-02
    1      -18.096376
    2      -15.325130
    3       -9.384462
    4       -5.852691
    5       -0.790013
    6        4.349568
    7        6.445564
    8        7.283935
    9        7.640149
   10        8.128960
   11        8.437085
   12        9.398103
   13        9.864129
   14        9.994405
   15       10.773394
   16       11.275909
   17       11.464124
   18       11.822737
   19       11.886467
   20       12.200809
   21       12.919634
   22       13.535920
   23       13.537738
   24       14.297801
   25       14.674814
   26       15.303854
   27       15.891786
 
  0.4833333E+00  0.1666667E-01  0.0000000E+00  0.1111111E-02
    1      -17.522299
    2      -15.996095
    3       -9.449299
    4       -5.487345
    5       -1.256203
    6        4.316757
    7        7.391557
    8        8.237646
    9        8.641938
   10        8.922994
   11        9.104637
   12        9.430366
   13        9.771076
   14       10.282028
   15       10.374062
   16       10.732806
   17       10.850935
   18       11.045752
   19       11.821736
   20       12.244123
   21       12.430910
   22       12.780895
   23       13.498788
   24       14.300819
   25       14.420353
   26       15.215816
   27       15.645998
 
 -0.4833333E+00  0.1666667E-01  0.0000000E+00  0.1111111E-02
    1      -17.329063
    2      -16.208695
    3       -9.462305
    4       -5.403519
    5       -1.360337
    6        4.310090
    7        7.879885
    8        8.410944
    9        8.721954
   10        9.170490
   11        9.256009
   12        9.643766
   13        9.717801
   14        9.950943
   15       10.162178
   16       10.490667
   17       10.868965
   18       11.362802
   19       11.406670
   20       11.892504
   21       12.528262
   22       13.207038
   23       13.276879
   24       13.789923
   25       14.524463
   26       15.555725
   27       15.668838
 
 -0.4500000E+00  0.1666667E-01  0.0000000E+00  0.1111111E-02
    1      -17.797353
    2      -15.682259
    3       -9.423331
    4       -5.643012
    5       -1.060059
    6        4.329999
    7        6.911417
    8        7.754688
    9        8.132142
   10        8.610690
   11        8.923285
   12        9.451746
   13        9.845373
   14       10.339422
   15       10.355390
   16       10.864257
   17       11.255297
   18       11.615666
   19       11.681350
   20       12.294321
   21       12.497961
   22       12.982209
   23       13.628908
   24       14.432578
   25       14.733287
   26       14.832899
   27       15.770353
 
 -0.4166667E+00  0.1666667E-01  0.0000000E+00  0.1111111E-02
    1      -18.399558
    2      -14.944814
    3       -9.332843
    4       -6.099027
    5       -0.463854
    6        4.374963
    7        5.995549
    8        6.827616
    9        7.166290
   10        7.663379
   11        7.967808
   12        8.945779
   13        9.408718
   14       10.517248
   15       10.694631
   16       11.366678
   17       11.450510
   18       12.082156
   19       12.436595
   20       12.797021
   21       12.987610
   22       13.724515
   23       13.850810
   24       14.095057
   25       14.947488
   26       15.656355
   27       15.943867
 
 -0.3833333E+00  0.1666667E-01  0.0000000E+00  0.1111111E-02
    1      -18.992035
    2      -14.142239
    3       -9.192087
    4       -6.649531
    5        0.302206
    6        4.436802
    7        5.150786
    8        5.962156
    9        6.273154
   10        6.783388
   11        7.082388
   12        8.081395
   13        8.532863
   14        9.909591
   15       10.498031
   16       11.537356
   17       11.981395
   18       12.734643
   19       13.005271
   20       13.367303
   21       13.714618
   22       14.000542
   23       14.543070
   24       14.876035
   25       15.222861
   26       15.253076
   27       16.006210
 
 -0.3500000E+00  0.1666667E-01  0.0000000E+00  0.1111111E-02
    1      -19.550058
    2      -13.302554
    3       -9.003039
    4       -7.222781
    5        1.159707
    6        4.287108
    7        4.605541
    8        5.163321
    9        5.453098
   10        5.973369
   11        6.268832
   12        7.281159
   13        7.726216
   14        9.137198
   15        9.699953
   16       11.418853
   17       12.195280
   18       12.355590
   19       13.398306
   20       13.937167
   21       14.467401
   22       14.708374
   23       15.109670
   24       15.141407
   25       15.268581
   26       16.024931
   27       16.084757
 
 -0.3166667E+00  0.1666667E-01  0.0000000E+00  0.1111111E-02
    1      -20.065981
    2      -12.438434
    3       -8.768703
    4       -7.782351
    5        2.061778
    6        3.604146
    7        4.434936
    8        4.661829
    9        4.722260
   10        5.234622
   11        5.528913
   12        6.548950
   13        6.990401
   14        8.421591
   15        8.969898
   16       10.758947
   17       11.491454
   18       12.474566
   19       13.078740
   20       13.383867
   21       14.541227
   22       14.852229
   23       15.951984
   24       16.295987
   25       16.341263
   26       16.891130
   27       17.214631
 
 -0.2833333E+00  0.1666667E-01  0.0000000E+00  0.1111111E-02
    1      -20.536315
    2      -11.560296
    3       -8.493335
    4       -8.309125
    5        2.955831
    6        2.963739
    7        3.791129
    8        4.028850
    9        4.569237
   10        4.759168
   11        4.902256
   12        5.886723
   13        6.326653
   14        7.770207
   15        8.309637
   16       10.136661
   17       10.837395
   18       11.589183
   19       12.681660
   20       12.922767
   21       13.899489
   22       15.364668
   23       16.854208
   24       17.095103
   25       17.465806
   26       17.751184
   27       17.930355
 
 -0.2500000E+00  0.1666667E-01  0.0000000E+00  0.1111111E-02
    1      -20.959001
    2      -10.679645
    3       -8.792316
    4       -8.182752
    5        2.373629
    6        3.139485
    7        3.427492
    8        3.860010
    9        4.050590
   10        4.247832
   11        4.943320
   12        5.296923
   13        5.737817
   14        7.186203
   15        7.719993
   16        9.570763
   17       10.251088
   18       10.509368
   19       12.199820
   20       12.421171
   21       13.320104
   22       15.458778
   23       16.883252
   24       17.161767
   25       18.429734
   26       19.303169
   27       19.319570
 
 -0.2166667E+00  0.1666667E-01  0.0000000E+00  0.1111111E-02
    1      -21.332671
    2       -9.810314
    3       -9.225364
    4       -7.844904
    5        1.860477
    6        2.637582
    7        2.898738
    8        3.434936
    9        3.725154
   10        4.706541
   11        4.888431
   12        5.030191
   13        5.255603
   14        6.671526
   15        7.201476
   16        9.067907
   17        9.443121
   18        9.737388
   19       11.632776
   20       11.952599
   21       12.807081
   22       15.209546
   23       16.382733
   24       17.726100
   25       19.712565
   26       19.780682
   27       20.457809
 
 -0.1833333E+00  0.1666667E-01  0.0000000E+00  0.1111111E-02
    1      -21.656314
    2       -9.604035
    3       -8.969811
    4       -7.490570
    5        1.417338
    6        2.191500
    7        2.442847
    8        2.985454
    9        3.272715
   10        4.313777
   11        4.733636
   12        5.214149
   13        5.657385
   14        6.229852
   15        6.754380
   16        8.439664
   17        8.631330
   18        9.291003
   19       11.056541
   20       11.536879
   21       12.362820
   22       14.881840
   23       15.946435
   24       18.172819
   25       19.859444
   26       19.998136
   27       20.869701
 
 -0.1500000E+00  0.1666667E-01  0.0000000E+00  0.1111111E-02
    1      -21.929187
    2       -9.925487
    3       -8.180401
    4       -7.134178
    5        1.044696
    6        1.814745
    7        2.059873
    8        2.606067
    9        2.892253
   10        3.937792
   11        4.364757
   12        5.286172
   13        5.843895
   14        6.378710
   15        6.425681
   16        7.524979
   17        8.262849
   18        8.915576
   19       10.523059
   20       11.181937
   21       11.988519
   22       14.570015
   23       15.577480
   24       18.241583
   25       19.657172
   26       20.467169
   27       20.872471
 
 -0.1166667E+00  0.1666667E-01  0.0000000E+00  0.1111111E-02
    1      -22.150739
    2      -10.187734
    3       -7.470012
    4       -6.794572
    5        0.742843
    6        1.509064
    7        1.749839
    8        2.298493
    9        2.584132
   10        3.631995
   11        4.061109
   12        5.322331
   13        5.543346
   14        6.073961
   15        6.727369
   16        7.083619
   17        7.963593
   18        8.610788
   19       10.070835
   20       10.891668
   21       11.684765
   22       14.303445
   23       15.277211
   24       18.112948
   25       19.370421
   26       20.452346
   27       21.306152
 
 -0.8333333E-01  0.1666667E-01  0.0000000E+00  0.1111111E-02
    1      -22.320534
    2      -10.389411
    3       -6.872233
    4       -6.495162
    5        0.511949
    6        1.275023
    7        1.512753
    8        2.063122
    9        2.348477
   10        3.397784
   11        3.828085
   12        5.311351
   13        5.316309
   14        5.839004
   15        6.075769
   16        7.621261
   17        7.734766
   18        8.376853
   19        9.725644
   20       10.668206
   21       11.451942
   22       14.093599
   23       15.046532
   24       17.959032
   25       19.147540
   26       20.009301
   27       21.915382
 
 -0.5000000E-01  0.1666667E-01  0.0000000E+00  0.1111111E-02
    1      -22.438275
    2      -10.529576
    3       -6.424242
    4       -6.262630
    5        0.352099
    6        1.112878
    7        1.348618
    8        1.900109
    9        2.185334
   10        3.235514
   11        3.666611
   12        5.150418
   13        5.283160
   14        5.599378
   15        5.673301
   16        7.574871
   17        8.014208
   18        8.214301
   19        9.496157
   20       10.512805
   21       11.290403
   22       13.945852
   23       14.886196
   24       17.836409
   25       18.990870
   26       19.657648
   27       22.056807
 
 -0.1666667E-01  0.1666667E-01  0.0000000E+00  0.1111111E-02
    1      -22.503747
    2      -10.607624
    3       -6.161066
    4       -6.122829
    5        0.263306
    6        1.022761
    7        1.257434
    8        1.809527
    9        2.094705
   10        3.145328
   11        3.576897
   12        5.060936
   13        5.250614
   14        5.324357
   15        5.578960
   16        7.486494
   17        8.123762
   18        8.239603
   19        9.375428
   20       10.426225
   21       11.200504
   22       13.862988
   23       14.796857
   24       17.764222
   25       18.902295
   26       19.448757
   27       22.050322
 
  0.1666667E-01  0.5000000E-01  0.0000000E+00  0.1111111E-02
    1      -22.477550
    2      -10.576386
    3       -6.267661
    4       -6.179743
    5        0.298821
    6        1.058811
    7        1.293907
    8        1.845761
    9        2.130956
   10        3.181405
   11        3.612781
   12        5.096734
   13        5.264959
   14        5.435399
   15        5.616942
   16        7.521860
   17        8.148753
   18        8.159997
   19        9.422981
   20       10.460879
   21       11.236479
   22       13.896200
   23       14.832617
   24       17.793405
   25       18.937918
   26       19.533378
   27       22.057726
 
  0.5000000E-01  0.5000000E-01  0.0000000E+00  0.1111111E-02
    1      -22.464465
    2      -10.560784
    3       -6.321583
    4       -6.206367
    5        0.316580
    6        1.076834
    7        1.312144
    8        1.863878
    9        2.149081
   10        3.199442
   11        3.630723
   12        5.114630
   13        5.267667
   14        5.494334
   15        5.635752
   16        7.539532
   17        8.103646
   18        8.178103
   19        9.446986
   20       10.478195
   21       11.254459
   22       13.912772
   23       14.850485
   24       17.807853
   25       18.955625
   26       19.575167
   27       22.059576
 
  0.8333333E-01  0.5000000E-01  0.0000000E+00  0.1111111E-02
    1      -22.399009
    2      -10.482804
    3       -6.571796
    4       -6.348302
    5        0.405383
    6        1.166936
    7        1.403330
    8        1.954453
    9        2.239715
   10        3.289614
   11        3.720452
   12        5.204086
   13        5.312917
   14        5.729208
   15        5.744182
   16        7.627860
   17        7.881764
   18        8.268566
   19        9.572464
   20       10.564650
   21       11.344282
   22       13.995277
   23       14.939704
   24       17.878274
   25       19.043393
   26       19.778493
   27       22.031668
 
  0.1166667E+00  0.5000000E-01  0.0000000E+00  0.1111111E-02
    1      -22.281331
    2      -10.342793
    3       -6.991340
    4       -6.594015
    5        0.565256
    6        1.329056
    7        1.567467
    8        2.117453
    9        2.402874
   10        3.451862
   11        3.882000
   12        5.364984
   13        5.392307
   14        5.895166
   15        6.148558
   16        7.496160
   17        7.786686
   18        8.431081
   19        9.815870
   20       10.719710
   21       11.505680
   22       14.142079
   23       15.099849
   24       17.995541
   25       19.199267
   26       20.118869
   27       21.734302
 
  0.1500000E+00  0.5000000E-01  0.0000000E+00  0.1111111E-02
    1      -22.111608
    2      -10.141310
    3       -7.556501
    4       -6.910388
    5        0.796188
    6        1.563064
    7        1.804556
    8        2.352808
    9        2.638557
   10        3.686051
   11        4.115240
   12        5.451401
   13        5.596990
   14        6.130051
   15        6.707724
   16        6.967185
   17        8.015708
   18        8.665080
   19       10.189554
   20       10.942474
   21       11.738301
   22       14.349811
   23       15.330288
   24       18.133302
   25       19.421418
   26       20.543931
   27       20.964806
 
  0.1833333E+00  0.5000000E-01  0.0000000E+00  0.1111111E-02
    1      -21.890162
    2       -9.879325
    3       -8.237480
    4       -7.265709
    5        1.098091
    6        1.868711
    7        2.114596
    8        2.660373
    9        2.946728
   10        3.991854
   11        4.419525
   12        5.457099
   13        5.897619
   14        6.320636
   15        6.434098
   16        7.410433
   17        8.314415
   18        8.970059
   19       10.686900
   20       11.231441
   21       12.041798
   22       14.611655
   23       15.630273
   24       18.207841
   25       19.707219
   26       20.154341
   27       20.939618
 
  0.2166667E+00  0.5000000E-01  0.0000000E+00  0.1111111E-02
    1      -21.617430
    2       -9.558201
    3       -9.003117
    4       -7.634771
    5        1.470792
    6        2.245457
    7        2.497578
    8        3.039779
    9        3.327281
   10        4.367945
   11        4.791747
   12        5.409776
   13        5.569497
   14        6.279150
   15        6.809026
   16        8.231985
   17        8.681997
   18        9.345906
   19       11.281357
   20       11.584011
   21       12.415828
   22       14.912261
   23       15.998885
   24       18.003401
   25       19.718334
   26       20.046133
   27       20.919068
 
  0.2500000E+00  0.5000000E-01  0.0000000E+00  0.1111111E-02
    1      -21.293955
    2       -9.825414
    3       -9.179903
    4       -7.998620
    5        1.914009
    6        2.691616
    7        2.953483
    8        3.489342
    9        3.779939
   10        4.703232
   11        4.869434
   12        5.180159
   13        5.375963
   14        6.722390
   15        7.255597
   16        9.117143
   17        9.140340
   18        9.793147
   19       11.934126
   20       11.995271
   21       12.859893
   22       15.209956
   23       16.434732
   24       17.484852
   25       19.736053
   26       19.825200
   27       20.507079
 
  0.2833333E+00  0.5000000E-01  0.0000000E+00  0.1111111E-02
    1      -20.920541
    2      -10.681118
    3       -8.747268
    4       -8.343329
    5        2.427289
    6        3.192668
    7        3.482268
    8        3.844476
    9        4.061073
   10        4.303617
   11        5.164773
   12        5.347739
   13        5.795013
   14        7.236517
   15        7.773762
   16        9.617637
   17       10.091608
   18       10.317249
   19       12.454691
   20       12.596934
   21       13.372831
   22       15.376484
   23       16.934564
   24       17.021675
   25       18.475729
   26       19.273120
   27       19.373812
 
  0.3166667E+00  0.5000000E-01  0.0000000E+00  0.1111111E-02
    1      -20.498147
    2      -11.551699
    3       -8.658743
    4       -8.264507
    5        2.926448
    6        3.009806
    7        3.835960
    8        4.083769
    9        4.620938
   10        4.878889
   11        5.066842
   12        5.937965
   13        6.381323
   14        7.819267
   15        8.363128
   16       10.179373
   17       10.874477
   18       11.071077
   19       12.934614
   20       13.200578
   21       13.951806
   22       15.192288
   23       16.890859
   24       17.146060
   25       17.516179
   26       17.805331
   27       17.929330
 
  0.3500000E+00  0.5000000E-01  0.0000000E+00  0.1111111E-02
    1      -20.028201
    2      -12.422364
    3       -8.937436
    4       -7.738108
    5        2.029457
    6        3.659409
    7        4.484246
    8        4.754626
    9        4.914720
   10        5.286763
   11        5.584478
   12        6.599618
   13        7.044490
   14        8.468445
   15        9.023094
   16       10.793476
   17       11.533402
   18       11.871780
   19       13.335046
   20       13.640300
   21       14.593090
   22       14.773884
   23       16.028531
   24       16.344039
   25       16.357530
   26       16.913713
   27       17.270921
 
  0.3833333E+00  0.5000000E-01  0.0000000E+00  0.1111111E-02
    1      -19.512735
    2      -13.280931
    3       -9.173976
    4       -7.178762
    5        1.135481
    6        4.361305
    7        4.819123
    8        5.212358
    9        5.507962
   10        6.025183
   11        6.323298
   12        7.330611
   13        7.779983
   14        9.180029
   15        9.752728
   16       11.433729
   17       12.079464
   18       12.293790
   19       13.291507
   20       13.955856
   21       14.518236
   22       14.785738
   23       15.147323
   24       15.273865
   25       15.334819
   26       15.976815
   27       16.199132
 
  0.4166667E+00  0.5000000E-01  0.0000000E+00  0.1111111E-02
    1      -18.955308
    2      -14.116474
    3       -9.364484
    4       -6.605393
    5        0.284478
    6        4.667221
    7        5.208531
    8        6.009780
    9        6.327856
   10        6.834445
   11        7.136585
   12        8.128636
   13        8.586286
   14        9.943882
   15       10.549929
   16       11.511193
   17       11.930104
   18       12.766064
   19       13.054704
   20       13.414889
   21       13.739989
   22       13.966206
   23       14.505578
   24       14.650634
   25       15.303933
   26       15.478200
   27       16.064320
 
  0.4500000E+00  0.5000000E-01  0.0000000E+00  0.1111111E-02
    1      -18.363630
    2      -14.915913
    3       -9.506161
    4       -6.054162
    5       -0.477417
    6        4.610561
    7        6.047595
    8        6.872497
    9        7.220944
   10        7.713063
   11        8.021771
   12        8.988508
   13        9.461562
   14       10.542090
   15       10.697912
   16       11.418236
   17       11.462054
   18       12.135508
   19       12.460372
   20       12.838801
   21       12.999997
   22       13.759348
   23       13.891942
   24       14.099260
   25       14.865179
   26       15.374843
   27       16.033855
 
  0.4833333E+00  0.5000000E-01  0.0000000E+00  0.1111111E-02
    1      -17.762390
    2      -15.650928
    3       -9.597155
    4       -5.596667
    5       -1.071997
    6        4.566087
    7        6.961785
    8        7.794142
    9        8.186742
   10        8.657480
   11        8.976808
   12        9.492363
   13        9.868415
   14       10.365766
   15       10.407602
   16       10.918433
   17       11.285484
   18       11.665848
   19       11.712911
   20       12.343447
   21       12.522560
   22       13.022672
   23       13.580846
   24       14.480261
   25       14.738962
   26       14.863565
   27       15.648406
 
 -0.4833333E+00  0.5000000E-01  0.0000000E+00  0.1111111E-02
    1      -17.295219
    2      -16.175677
    3       -9.636346
    4       -5.355846
    5       -1.372280
    6        4.546245
    7        7.927690
    8        8.458006