  344  344    1    2
  0.4009161E+02  0.4031955E-08  0.1152000E-08  0.3000000E-08  0.5000000E-15
  1.000000000000000E-004
  CAR 
 DoubleDecker                            
   2828      1   1890
 
  0.0000000E+00  0.0000000E+00  0.0000000E+00  0.1000000E+01
    1      -22.893072    -22.890912   1.000000   1.000000
    2      -22.891405    -22.889365   1.000000   1.000000
    3      -22.841659    -22.843597   1.000000   1.000000
    4      -22.832997    -22.830941   1.000000   1.000000
    5      -22.761726    -22.760568   1.000000   1.000000
    6      -22.737184    -22.735949   1.000000   1.000000
    7      -22.711089    -22.710083   1.000000   1.000000
    8      -22.703461    -22.704359   1.000000   1.000000
    9      -22.700333    -22.699125   1.000000   1.000000
   10      -22.687397    -22.686311   1.000000   1.000000
   11      -22.665149    -22.665995   1.000000   1.000000
   12      -22.663965    -22.663055   1.000000   1.000000
   13      -22.615184    -22.614323   1.000000   1.000000
   14      -22.599329    -22.598733   1.000000   1.000000
   15      -22.560462    -22.559872   1.000000   1.000000
   16      -22.555718    -22.556235   1.000000   1.000000
   17      -22.110014    -22.108263   1.000000   1.000000
   18      -22.096604    -22.094633   1.000000   1.000000
   19      -22.046316    -22.048165   1.000000   1.000000
   20      -22.040433    -22.038492   1.000000   1.000000
   21      -21.927784    -21.925942   1.000000   1.000000
   22      -21.898342    -21.896634   1.000000   1.000000
   23      -21.888016    -21.886706   1.000000   1.000000
   24      -21.881150    -21.879274   1.000000   1.000000
   25      -21.854673    -21.856337   1.000000   1.000000
   26      -21.843147    -21.841365   1.000000   1.000000
   27      -21.833114    -21.832971   1.000000   1.000000
   28      -21.831343    -21.831462   1.000000   1.000000
   29      -21.190208    -21.190083   1.000000   1.000000
   30      -21.186506    -21.186230   1.000000   1.000000
   31      -21.154136    -21.154263   1.000000   1.000000
   32      -21.146144    -21.145966   1.000000   1.000000
   33      -21.098284    -21.095852   1.000000   1.000000
   34      -21.070696    -21.068154   1.000000   1.000000
   35      -21.030568    -21.033058   1.000000   1.000000
   36      -21.024915    -21.022407   1.000000   1.000000
   37      -19.953476    -19.953108   1.000000   1.000000
   38      -19.944537    -19.943954   1.000000   1.000000
   39      -19.930244    -19.929324   1.000000   1.000000
   40      -19.925952    -19.924939   1.000000   1.000000
   41      -19.908061    -19.908660   1.000000   1.000000
   42      -19.904787    -19.905440   1.000000   1.000000
   43      -19.900193    -19.899565   1.000000   1.000000
   44      -19.897314    -19.896634   1.000000   1.000000
   45      -19.214784    -19.213868   1.000000   1.000000
   46      -19.169059    -19.168355   1.000000   1.000000
   47      -19.149602    -19.150070   1.000000   1.000000
   48      -19.134971    -19.138478   1.000000   1.000000
   49      -19.116003    -19.134241   1.000000   1.000000
   50      -19.104944    -19.126213   1.000000   1.000000
   51      -19.102460    -19.117029   1.000000   1.000000
   52      -19.099686    -19.106179   1.000000   1.000000
   53      -19.084735    -19.083835   1.000000   1.000000
   54      -19.084180    -19.082872   1.000000   1.000000
   55      -19.077894    -19.078210   1.000000   1.000000
   56      -19.068884    -19.074517   1.000000   1.000000
   57      -19.061798    -19.061759   1.000000   1.000000
   58      -19.045830    -19.045407   1.000000   1.000000
   59      -19.036393    -19.038880   1.000000   1.000000
   60      -19.018926    -19.035867   1.000000   1.000000
   61      -19.014833    -19.028912   1.000000   1.000000
   62      -19.009613    -19.017738   1.000000   1.000000
   63      -19.007315    -19.016686   1.000000   1.000000
   64      -18.968492    -19.009389   1.000000   1.000000
   65      -18.945183    -19.005941   1.000000   1.000000
   66      -18.920969    -18.967990   1.000000   1.000000
   67      -18.893384    -18.945671   1.000000   1.000000
   68      -18.889505    -18.879328   1.000000   1.000000
   69      -16.514263    -16.512165   1.000000   1.000000
   70      -16.491883    -16.489206   1.000000   1.000000
   71      -16.466113    -16.468285   1.000000   1.000000
   72      -16.455267    -16.453875   1.000000   1.000000
   73      -16.450668    -16.449100   1.000000   1.000000
   74      -16.406232    -16.405954   1.000000   1.000000
   75      -16.399442    -16.399158   1.000000   1.000000
   76      -16.397530    -16.397575   1.000000   1.000000
   77      -16.392154    -16.391811   1.000000   1.000000
   78      -16.380399    -16.380125   1.000000   1.000000
   79      -16.368403    -16.368203   1.000000   1.000000
   80      -16.365495    -16.365576   1.000000   1.000000
   81      -16.329329    -16.329921   1.000000   1.000000
   82      -16.314189    -16.315296   1.000000   1.000000
   83      -16.289728    -16.290890   1.000000   1.000000
   84      -16.283411    -16.282419   1.000000   1.000000
   85      -15.823237    -15.817952   1.000000   1.000000
   86      -15.817404    -15.812097   1.000000   1.000000
   87      -15.793827    -15.798840   1.000000   1.000000
   88      -15.789928    -15.784824   1.000000   1.000000
   89      -14.831911    -14.827233   1.000000   1.000000
   90      -14.828427    -14.823643   1.000000   1.000000
   91      -14.814383    -14.809682   1.000000   1.000000
   92      -14.811479    -14.806782   1.000000   1.000000
   93      -14.793433    -14.797770   1.000000   1.000000
   94      -14.792129    -14.790331   1.000000   1.000000
   95      -14.785930    -14.787635   1.000000   1.000000
   96      -14.780744    -14.776222   1.000000   1.000000
   97      -13.471305    -13.470645   1.000000   1.000000
   98      -13.429912    -13.429403   1.000000   1.000000
   99      -13.427062    -13.427404   1.000000   1.000000
  100      -13.418360    -13.417980   1.000000   1.000000
  101      -13.349054    -13.343625   1.000000   1.000000
  102      -13.348015    -13.342438   1.000000   1.000000
  103      -13.295400    -13.300693   1.000000   1.000000
  104      -13.293073    -13.287432   1.000000   1.000000
  105      -13.231491    -13.230482   1.000000   1.000000
  106      -13.188589    -13.187615   1.000000   1.000000
  107      -13.169470    -13.168780   1.000000   1.000000
  108      -13.156964    -13.157562   1.000000   1.000000
  109      -13.147361    -13.146296   1.000000   1.000000
  110      -13.145172    -13.144215   1.000000   1.000000
  111      -13.110315    -13.109422   1.000000   1.000000
  112      -13.099951    -13.100950   1.000000   1.000000
  113      -12.806427    -12.799017   1.000000   1.000000
  114      -12.765586    -12.758511   1.000000   1.000000
  115      -12.747205    -12.746617   1.000000   1.000000
  116      -12.719251    -12.723058   1.000000   1.000000
  117      -12.716799    -12.717576   1.000000   1.000000
  118      -12.715064    -12.710192   1.000000   1.000000
  119      -12.703535    -12.705005   1.000000   1.000000
  120      -12.698651    -12.696818   1.000000   1.000000
  121      -11.795937    -11.774840   1.000000   1.000000
  122      -11.789347    -11.768242   1.000000   1.000000
  123      -11.747901    -11.756549   1.000000   1.000000
  124      -11.735343    -11.726401   1.000000   1.000000
  125      -11.603803    -11.601368   1.000000   1.000000
  126      -11.592852    -11.590134   1.000000   1.000000
  127      -11.567189    -11.564386   1.000000   1.000000
  128      -11.556702    -11.554392   1.000000   1.000000
  129      -11.538178    -11.540698   1.000000   1.000000
  130      -11.527036    -11.524372   1.000000   1.000000
  131      -11.519449    -11.517466   1.000000   1.000000
  132      -11.513111    -11.515062   1.000000   1.000000
  133      -11.219433    -11.217376   1.000000   1.000000
  134      -11.216511    -11.214129   1.000000   1.000000
  135      -11.161920    -11.164129   1.000000   1.000000
  136      -11.160645    -11.158365   1.000000   1.000000
  137      -10.872324    -10.863669   1.000000   1.000000
  138      -10.857773    -10.849589   1.000000   1.000000
  139      -10.849443    -10.840955   1.000000   1.000000
  140      -10.846777    -10.837833   1.000000   1.000000
  141      -10.816918    -10.824278   1.000000   1.000000
  142      -10.815654    -10.820439   1.000000   1.000000
  143      -10.811950    -10.808394   1.000000   1.000000
  144      -10.811649    -10.803070   1.000000   1.000000
  145      -10.076481    -10.071024   1.000000   1.000000
  146      -10.068599    -10.064016   1.000000   1.000000
  147      -10.022940    -10.025147   1.000000   1.000000
  148      -10.016476    -10.013529   1.000000   1.000000
  149       -9.768752     -9.762595   1.000000   1.000000
  150       -9.756468     -9.750135   1.000000   1.000000
  151       -9.756030     -9.749743   1.000000   1.000000
  152       -9.721247     -9.727371   1.000000   1.000000
  153       -9.719278     -9.713094   1.000000   1.000000
  154       -9.682750     -9.678484   1.000000   1.000000
  155       -9.675861     -9.672480   1.000000   1.000000
  156       -9.647268     -9.642806   1.000000   1.000000
  157       -9.646376     -9.640296   1.000000   1.000000
  158       -9.640932     -9.636993   1.000000   1.000000
  159       -9.638880     -9.633190   1.000000   1.000000
  160       -9.615333     -9.617847   1.000000   1.000000
  161       -9.606970     -9.603871   1.000000   1.000000
  162       -9.595223     -9.597438   1.000000   1.000000
  163       -9.593352     -9.591006   1.000000   1.000000
  164       -9.289151     -9.283070   1.000000   1.000000
  165       -9.278598     -9.272601   1.000000   1.000000
  166       -9.261244     -9.258311   1.000000   1.000000
  167       -9.241376     -9.235617   1.000000   1.000000
  168       -9.239803     -9.233977   1.000000   1.000000
  169       -9.182706     -9.181237   1.000000   1.000000
  170       -9.176953     -9.179166   1.000000   1.000000
  171       -9.175258     -9.171461   1.000000   1.000000
  172       -9.083849     -9.085495   1.000000   1.000000
  173       -9.082340     -9.080610   1.000000   1.000000
  174       -9.028706     -9.027550   1.000000   1.000000
  175       -9.006075     -9.005296   1.000000   1.000000
  176       -8.963109     -8.960145   1.000000   1.000000
  177       -8.893512     -8.887198   1.000000   1.000000
  178       -8.841636     -8.839759   1.000000   1.000000
  179       -8.829992     -8.827651   1.000000   1.000000
  180       -8.810693     -8.808578   1.000000   1.000000
  181       -8.805871     -8.802927   1.000000   1.000000
  182       -8.784144     -8.780564   1.000000   1.000000
  183       -8.750516     -8.748501   1.000000   1.000000
  184       -8.743015     -8.737814   1.000000   1.000000
  185       -8.738368     -8.737500   1.000000   1.000000
  186       -8.737105     -8.733528   1.000000   1.000000
  187       -8.718601     -8.717997   1.000000   1.000000
  188       -8.697099     -8.695817   1.000000   1.000000
  189       -8.664566     -8.660095   1.000000   1.000000
  190       -8.664266     -8.659841   1.000000   1.000000
  191       -8.509468     -8.508246   1.000000   1.000000
  192       -8.503874     -8.503212   1.000000   1.000000
  193       -8.481311     -8.480690   1.000000   1.000000
  194       -8.476588     -8.476217   1.000000   1.000000
  195       -8.466454     -8.465923   1.000000   1.000000
  196       -8.460961     -8.459178   1.000000   1.000000
  197       -8.457219     -8.456647   1.000000   1.000000
  198       -8.451681     -8.450804   1.000000   1.000000
  199       -8.439624     -8.438800   1.000000   1.000000
  200       -8.428832     -8.428134   1.000000   1.000000
  201       -8.395687     -8.389872   1.000000   1.000000
  202       -8.379893     -8.374816   1.000000   1.000000
  203       -8.376475     -8.372000   1.000000   1.000000
  204       -8.372947     -8.368937   1.000000   1.000000
  205       -8.370389     -8.364943   1.000000   1.000000
  206       -8.366874     -8.361457   1.000000   1.000000
  207       -8.344211     -8.342846   1.000000   1.000000
  208       -8.310591     -8.306243   1.000000   1.000000
  209       -8.305743     -8.301359   1.000000   1.000000
  210       -8.279628     -8.273822   1.000000   1.000000
  211       -8.277254     -8.271375   1.000000   1.000000
  212       -8.247037     -8.242022   1.000000   1.000000
  213       -8.245389     -8.239580   1.000000   1.000000
  214       -8.239229     -8.233142   1.000000   1.000000
  215       -8.237833     -8.230805   1.000000   1.000000
  216       -8.198384     -8.197151   1.000000   1.000000
  217       -8.167020     -8.161730   1.000000   1.000000
  218       -8.165945     -8.160634   1.000000   1.000000
  219       -8.126830     -8.125581   1.000000   1.000000
  220       -8.057253     -8.058307   1.000000   1.000000
  221       -8.052530     -8.051403   1.000000   1.000000
  222       -7.981554     -7.977134   1.000000   1.000000
  223       -7.980832     -7.976473   1.000000   1.000000
  224       -7.975803     -7.968546   1.000000   1.000000
  225       -7.975027     -7.967884   1.000000   1.000000
  226       -7.954364     -7.948572   1.000000   1.000000
  227       -7.951384     -7.945669   1.000000   1.000000
  228       -7.818136     -7.813896   1.000000   1.000000
  229       -7.817209     -7.813058   1.000000   1.000000
  230       -7.816300     -7.812140   1.000000   1.000000
  231       -7.810652     -7.806160   1.000000   1.000000
  232       -7.807989     -7.803557   1.000000   1.000000
  233       -7.791599     -7.787476   1.000000   1.000000
  234       -7.788097     -7.784008   1.000000   1.000000
  235       -7.748718     -7.745278   1.000000   1.000000
  236       -7.747393     -7.743232   1.000000   1.000000
  237       -7.744186     -7.738101   1.000000   1.000000
  238       -7.742201     -7.737462   1.000000   1.000000
  239       -7.687657     -7.649872   1.000000   1.000000
  240       -7.653788     -7.646341   1.000000   1.000000
  241       -7.653174     -7.640952   1.000000   1.000000
  242       -7.649584     -7.639806   1.000000   1.000000
  243       -7.647557     -7.633725   1.000000   1.000000
  244       -7.646248     -7.627624   1.000000   1.000000
  245       -7.630485     -7.604531   1.000000   1.000000
  246       -7.604687     -7.598855   1.000000   1.000000
  247       -7.599943     -7.594913   1.000000   1.000000
  248       -7.597497     -7.592316   1.000000   1.000000
  249       -7.593214     -7.589211   1.000000   1.000000
  250       -7.592427     -7.586963   1.000000   1.000000
  251       -7.586759     -7.579731   1.000000   1.000000
  252       -7.585068     -7.577648   1.000000   1.000000
  253       -7.578048     -7.575308   1.000000   1.000000
  254       -7.572590     -7.567717   1.000000   1.000000
  255       -7.544708     -7.540473   1.000000   1.000000
  256       -7.531853     -7.526384   1.000000   1.000000
  257       -7.530077     -7.524642   1.000000   1.000000
  258       -7.518888     -7.515688   1.000000   1.000000
  259       -7.514369     -7.511652   1.000000   1.000000
  260       -7.510394     -7.507339   1.000000   1.000000
  261       -7.483552     -7.480765   1.000000   1.000000
  262       -7.482090     -7.479299   1.000000   1.000000
  263       -7.478917     -7.474998   1.000000   1.000000
  264       -7.477760     -7.474189   1.000000   1.000000
  265       -7.476811     -7.473654   1.000000   1.000000
  266       -7.476261     -7.472071   1.000000   1.000000
  267       -7.466660     -7.461563   1.000000   1.000000
  268       -7.458427     -7.454561   1.000000   1.000000
  269       -7.457519     -7.453058   1.000000   1.000000
  270       -7.451992     -7.448397   1.000000   1.000000
  271       -7.451107     -7.448071   1.000000   1.000000
  272       -7.449943     -7.446353   1.000000   1.000000
  273       -7.448363     -7.444132   1.000000   1.000000
  274       -7.447969     -7.443539   1.000000   1.000000
  275       -7.444497     -7.440910   1.000000   1.000000
  276       -7.435921     -7.431615   1.000000   1.000000
  277       -7.433234     -7.429733   1.000000   1.000000
  278       -7.429058     -7.424994   1.000000   1.000000
  279       -7.424658     -7.419979   1.000000   1.000000
  280       -7.417461     -7.414113   1.000000   1.000000
  281       -7.417032     -7.413678   1.000000   1.000000
  282       -7.396764     -7.393592   1.000000   1.000000
  283       -7.395068     -7.391636   1.000000   1.000000
  284       -7.386130     -7.382151   1.000000   1.000000
  285       -7.378941     -7.377402   1.000000   1.000000
  286       -7.375678     -7.373155   1.000000   1.000000
  287       -7.371627     -7.371730   1.000000   1.000000
  288       -7.369476     -7.365875   1.000000   1.000000
  289       -7.365016     -7.361371   1.000000   1.000000
  290       -7.364771     -7.360121   1.000000   1.000000
  291       -7.363563     -7.358628   1.000000   1.000000
  292       -7.361119     -7.354930   1.000000   1.000000
  293       -7.352610     -7.349503   1.000000   1.000000
  294       -7.347810     -7.345535   1.000000   1.000000
  295       -7.346448     -7.343932   1.000000   1.000000
  296       -7.345139     -7.340805   1.000000   1.000000
  297       -7.344059     -7.339753   1.000000   1.000000
  298       -7.335729     -7.335813   1.000000   1.000000
  299       -7.327102     -7.323950   1.000000   1.000000
  300       -7.325681     -7.320995   1.000000   1.000000
  301       -7.323697     -7.320185   1.000000   1.000000
  302       -7.317862     -7.313667   1.000000   1.000000
  303       -7.314770     -7.311451   1.000000   1.000000
  304       -7.304946     -7.301174   1.000000   1.000000
  305       -7.279468     -7.276205   1.000000   1.000000
  306       -7.268327     -7.268494   1.000000   1.000000
  307       -7.266889     -7.263715   1.000000   1.000000
  308       -7.265582     -7.262913   1.000000   1.000000
  309       -7.263635     -7.259943   1.000000   1.000000
  310       -7.261595     -7.259152   1.000000   1.000000
  311       -7.214279     -7.211312   1.000000   1.000000
  312       -7.210944     -7.206337   1.000000   1.000000
  313       -7.206343     -7.203400   1.000000   1.000000
  314       -7.203165     -7.198781   1.000000   1.000000
  315       -7.202564     -7.198198   1.000000   1.000000
  316       -7.201964     -7.197813   1.000000   1.000000
  317       -7.185615     -7.179435   1.000000   1.000000
  318       -7.185540     -7.179239   1.000000   1.000000
  319       -7.172093     -7.166859   1.000000   1.000000
  320       -7.171461     -7.166172   1.000000   1.000000
  321       -7.162863     -7.156757   1.000000   1.000000
  322       -7.162546     -7.156133   1.000000   1.000000
  323       -7.138526     -7.135014   1.000000   1.000000
  324       -7.137941     -7.134437   1.000000   1.000000
  325       -7.122940     -7.117245   1.000000   1.000000
  326       -7.122684     -7.116954   1.000000   1.000000
  327       -7.120707     -7.116702   1.000000   1.000000
  328       -7.120083     -7.116064   1.000000   1.000000
  329       -7.118878     -7.115537   1.000000   1.000000
  330       -7.116599     -7.113214   1.000000   1.000000
  331       -7.115777     -7.110709   1.000000   1.000000
  332       -7.114729     -7.109474   1.000000   1.000000
  333       -7.113437     -7.107032   1.000000   1.000000
  334       -7.111749     -7.105518   1.000000   1.000000
  335       -7.066610     -7.048999   1.000000   1.000000
  336       -7.050680     -7.045296   1.000000   1.000000
  337       -7.047557     -7.044443   1.000000   1.000000
  338       -7.046557     -7.042763   1.000000   1.000000
  339       -7.042445     -7.037913   1.000000   1.000000
  340       -7.033827     -7.030000   1.000000   1.000000
  341       -7.022791     -7.008239   1.000000   1.000000
  342       -7.007505     -7.000640   1.000000   1.000000
  343       -6.997111     -6.986166   1.000000   1.000000
  344       -6.963609     -6.956859   1.000000   1.000000
  345       -6.946485     -6.943592   1.000000   1.000000
  346       -6.943482     -6.940512   1.000000   1.000000
  347       -6.941803     -6.936098   1.000000   1.000000
  348       -6.938014     -6.934247   1.000000   1.000000
  349       -6.936563     -6.932533   1.000000   1.000000
  350       -6.935558     -6.932026   1.000000   1.000000
  351       -6.935206     -6.931077   1.000000   1.000000
  352       -6.933500     -6.929387   1.000000   1.000000
  353       -6.931920     -6.927296   1.000000   1.000000
  354       -6.931145     -6.925596   1.000000   1.000000
  355       -6.929858     -6.924985   1.000000   1.000000
  356       -6.927983     -6.924438   1.000000   1.000000
  357       -6.925503     -6.920441   1.000000   1.000000
  358       -6.923366     -6.918636   1.000000   1.000000
  359       -6.911226     -6.906288   1.000000   1.000000
  360       -6.908321     -6.903132   1.000000   1.000000
  361       -6.904439     -6.898627   1.000000   1.000000
  362       -6.900490     -6.892234   1.000000   1.000000
  363       -6.896957     -6.889017   1.000000   1.000000
  364       -6.892769     -6.887898   1.000000   1.000000
  365       -6.885571     -6.881744   1.000000   1.000000
  366       -6.868442     -6.863137   1.000000   1.000000
  367       -6.862621     -6.857206   1.000000   1.000000
  368       -6.851629     -6.848007   1.000000   1.000000
  369       -6.850944     -6.846761   1.000000   1.000000
  370       -6.848228     -6.843542   1.000000   1.000000
  371       -6.847313     -6.842265   1.000000   1.000000
  372       -6.846472     -6.840430   1.000000   1.000000
  373       -6.842710     -6.838534   1.000000   1.000000
  374       -6.841138     -6.838224   1.000000   1.000000
  375       -6.838658     -6.836419   1.000000   1.000000
  376       -6.837783     -6.834174   1.000000   1.000000
  377       -6.835129     -6.833165   1.000000   1.000000
  378       -6.826331     -6.823345   1.000000   1.000000
  379       -6.821310     -6.816912   1.000000   1.000000
  380       -6.795696     -6.790067   1.000000   1.000000
  381       -6.786007     -6.781817   1.000000   1.000000
  382       -6.783556     -6.778308   1.000000   1.000000
  383       -6.774101     -6.770264   1.000000   1.000000
  384       -6.741378     -6.736145   1.000000   1.000000
  385       -6.730989     -6.725858   1.000000   1.000000
  386       -6.682862     -6.677931   1.000000   1.000000
  387       -6.682689     -6.677730   1.000000   1.000000
  388       -6.680861     -6.675718   1.000000   1.000000
  389       -6.679956     -6.674852   1.000000   1.000000
  390       -6.670791     -6.666183   1.000000   1.000000
  391       -6.669762     -6.665260   1.000000   1.000000
  392       -6.668251     -6.664216   1.000000   1.000000
  393       -6.667112     -6.662701   1.000000   1.000000
  394       -6.663696     -6.659445   1.000000   1.000000
  395       -6.662724     -6.658356   1.000000   1.000000
  396       -6.662215     -6.657966   1.000000   1.000000
  397       -6.660633     -6.656311   1.000000   1.000000
  398       -6.658922     -6.655001   1.000000   1.000000
  399       -6.657989     -6.654004   1.000000   1.000000
  400       -6.649706     -6.644789   1.000000   1.000000
  401       -6.648563     -6.643679   1.000000   1.000000
  402       -6.637425     -6.633233   1.000000   1.000000
  403       -6.635746     -6.631622   1.000000   1.000000
  404       -6.613916     -6.609521   1.000000   1.000000
  405       -6.612648     -6.608018   1.000000   1.000000
  406       -6.608256     -6.604262   1.000000   1.000000
  407       -6.607166     -6.602773   1.000000   1.000000
  408       -6.602859     -6.599316   1.000000   1.000000
  409       -6.601667     -6.597131   1.000000   1.000000
  410       -6.595365     -6.595290   1.000000   1.000000
  411       -6.594516     -6.591557   1.000000   1.000000
  412       -6.593464     -6.589332   1.000000   1.000000
  413       -6.585524     -6.587016   1.000000   1.000000
  414       -6.584664     -6.582450   1.000000   1.000000
  415       -6.583260     -6.580374   1.000000   1.000000
  416       -6.582642     -6.578999   1.000000   1.000000
  417       -6.582394     -6.578800   1.000000   1.000000
  418       -6.566822     -6.563649   1.000000   1.000000
  419       -6.564859     -6.560976   1.000000   1.000000
  420       -6.563714     -6.560041   1.000000   1.000000
  421       -6.562223     -6.558149   1.000000   1.000000
  422       -6.561845     -6.557365   1.000000   1.000000
  423       -6.558858     -6.555228   1.000000   1.000000
  424       -6.558067     -6.554640   1.000000   1.000000
  425       -6.555376     -6.553561   1.000000   1.000000
  426       -6.555063     -6.551385   1.000000   1.000000
  427       -6.552948     -6.549233   1.000000   1.000000
  428       -6.552418     -6.548621   1.000000   1.000000
  429       -6.550714     -6.546507   1.000000   1.000000
  430       -6.549325     -6.544897   1.000000   1.000000
  431       -6.548310     -6.543578   1.000000   1.000000
  432       -6.546376     -6.541663   1.000000   1.000000
  433       -6.544587     -6.539829   1.000000   1.000000
  434       -6.541315     -6.537348   1.000000   1.000000
  435       -6.539688     -6.535149   1.000000   1.000000
  436       -6.538401     -6.533954   1.000000   1.000000
  437       -6.536413     -6.532049   1.000000   1.000000
  438       -6.522703     -6.519180   1.000000   1.000000
  439       -6.521593     -6.517613   1.000000   1.000000
  440       -6.520883     -6.517185   1.000000   1.000000
  441       -6.520043     -6.515865   1.000000   1.000000
  442       -6.498401     -6.494659   1.000000   1.000000
  443       -6.497633     -6.493816   1.000000   1.000000
  444       -6.490639     -6.485468   1.000000   1.000000
  445       -6.490087     -6.485009   1.000000   1.000000
  446       -6.487482     -6.482833   1.000000   1.000000
  447       -6.487160     -6.482505   1.000000   1.000000
  448       -6.476585     -6.471795   1.000000   1.000000
  449       -6.476039     -6.470843   1.000000   1.000000
  450       -6.447512     -6.443316   1.000000   1.000000
  451       -6.443383     -6.438175   1.000000   1.000000
  452       -6.435109     -6.430800   1.000000   1.000000
  453       -6.433293     -6.428031   1.000000   1.000000
  454       -6.409374     -6.405458   1.000000   1.000000
  455       -6.408579     -6.404633   1.000000   1.000000
  456       -6.393014     -6.387783   1.000000   1.000000
  457       -6.392527     -6.387269   1.000000   1.000000
  458       -6.348485     -6.344791   1.000000   1.000000
  459       -6.347951     -6.344207   1.000000   1.000000
  460       -6.346437     -6.343587   1.000000   1.000000
  461       -6.345745     -6.342927   1.000000   1.000000
  462       -6.340872     -6.336081   1.000000   1.000000
  463       -6.339609     -6.334822   1.000000   1.000000
  464       -6.306546     -6.302467   1.000000   1.000000
  465       -6.305836     -6.301719   1.000000   1.000000
  466       -6.282380     -6.277322   1.000000   1.000000
  467       -6.281778     -6.276756   1.000000   1.000000
  468       -6.265371     -6.262748   1.000000   1.000000
  469       -6.263960     -6.261052   1.000000   1.000000
  470       -6.259760     -6.256923   1.000000   1.000000
  471       -6.259168     -6.255675   1.000000   1.000000
  472       -6.258780     -6.255370   1.000000   1.000000
  473       -6.258049     -6.254901   1.000000   1.000000
  474       -6.246697     -6.243805   1.000000   1.000000
  475       -6.246169     -6.243092   1.000000   1.000000
  476       -6.238870     -6.235783   1.000000   1.000000
  477       -6.237809     -6.234540   1.000000   1.000000
  478       -6.231717     -6.227740   1.000000   1.000000
  479       -6.231515     -6.227590   1.000000   1.000000
  480       -6.216477     -6.211868   1.000000   1.000000
  481       -6.215188     -6.210613   1.000000   1.000000
  482       -6.194033     -6.190764   1.000000   1.000000
  483       -6.193305     -6.190052   1.000000   1.000000
  484       -6.189371     -6.184451   1.000000   1.000000
  485       -6.185599     -6.182071   1.000000   1.000000
  486       -6.184744     -6.181544   1.000000   1.000000
  487       -6.179024     -6.174159   1.000000   1.000000
  488       -6.176818     -6.172487   1.000000   1.000000
  489       -6.176175     -6.171788   1.000000   1.000000
  490       -6.175152     -6.171006   1.000000   1.000000
  491       -6.172641     -6.165596   1.000000   1.000000
  492       -6.169521     -6.164209   1.000000   1.000000
  493       -6.167074     -6.161595   1.000000   1.000000
  494       -6.163337     -6.159057   1.000000   1.000000
  495       -6.162482     -6.158794   1.000000   1.000000
  496       -6.156075     -6.151779   1.000000   1.000000
  497       -6.155957     -6.150413   1.000000   1.000000
  498       -6.154412     -6.146162   1.000000   1.000000
  499       -6.149907     -6.144694   1.000000   1.000000
  500       -6.148985     -6.143941   1.000000   1.000000
  501       -6.148526     -6.142970   1.000000   1.000000
  502       -6.148164     -6.142673   1.000000   1.000000
  503       -6.146709     -6.141672   1.000000   1.000000
  504       -6.146179     -6.141114   1.000000   1.000000
  505       -6.145888     -6.139989   1.000000   1.000000
  506       -6.145305     -6.139376   1.000000   1.000000
  507       -6.144971     -6.137823   1.000000   1.000000
  508       -6.143096     -6.137123   1.000000   1.000000
  509       -6.142109     -6.135762   1.000000   1.000000
  510       -6.140662     -6.133883   1.000000   1.000000
  511       -6.140037     -6.132913   1.000000   1.000000
  512       -6.138123     -6.131091   1.000000   1.000000