    1    1    1    1
  0.1083831E+03  0.2501000E-09  0.2501000E-09  0.2000800E-08  0.5000000E-15
  1.000000000000000E-004
  CAR 
 Co-monolayer                            
      9    625     54
 
  0.0000000E+00  0.0000000E+00  0.0000000E+00  0.1600000E-02
    1       -9.548122   1.000000
    2       -9.315370   1.000000
    3       -6.490189   1.000000
    4       -6.186601   1.000000
    5       -6.034935   1.000000
    6       -5.296314   1.000000
    7       -5.206645   1.000000
    8       -4.810655   1.000000
    9       -4.443255   0.999995
   10       -4.306386   0.999737
   11       -3.301869   0.000139
   12       -3.295532   0.000116
   13       -3.105542   0.000000
   14       -3.024424   0.000000
   15        0.677385   0.000000
   16        0.788049   0.000000
   17        1.180932   0.000000
   18        1.401581   0.000000
   19        1.422082   0.000000
   20        1.604341   0.000000
   21        2.671816   0.000000
   22        2.855335   0.000000
   23        3.087653   0.000000
   24        3.232587   0.000000
   25        5.089931   0.000000
   26        5.271577   0.000000
   27        5.587036   0.000000
   28        5.709463   0.000000
   29        8.358908   0.000000
   30        8.522839   0.000000
   31        8.866504   0.000000
   32        9.009401   0.000000
   33       12.386523   0.000000
   34       12.575418   0.000000
   35       12.932918   0.000000
   36       13.054403   0.000000
   37       17.193601   0.000000
   38       17.376781   0.000000
   39       17.718552   0.000000
   40       17.840641   0.000000
   41       20.020032   0.000000
   42       20.379719   0.000000
   43       22.706773   0.000000
   44       22.879311   0.000000
   45       23.217494   0.000000
   46       23.332574   0.000000
   47       23.864843   0.000000
   48       24.073247   0.000000
   49       24.475428   0.000000
   50       24.673471   0.000000
   51       25.073306   0.000000
   52       25.122272   0.000000
   53       25.260491   0.000000
   54       25.311589   0.000000
 
  0.4000000E-01  0.2161984E-17  0.0000000E+00  0.1600000E-02
    1       -9.491253   1.000000
    2       -9.257277   1.000000
    3       -6.474885   1.000000
    4       -6.185968   1.000000
    5       -6.028673   1.000000
    6       -5.339553   1.000000
    7       -5.233165   1.000000
    8       -4.793421   1.000000
    9       -4.445523   0.999996
   10       -4.299868   0.999688
   11       -3.507669   0.014604
   12       -3.198330   0.000006
   13       -3.073394   0.000000
   14       -2.818992   0.000000
   15        0.726023   0.000000
   16        0.837039   0.000000
   17        1.235302   0.000000
   18        1.454847   0.000000
   19        1.472164   0.000000
   20        1.654892   0.000000
   21        2.725986   0.000000
   22        2.908591   0.000000
   23        3.136157   0.000000
   24        3.281858   0.000000
   25        5.144323   0.000000
   26        5.325155   0.000000
   27        5.634702   0.000000
   28        5.757933   0.000000
   29        8.413165   0.000000
   30        8.576416   0.000000
   31        8.913542   0.000000
   32        9.057078   0.000000
   33       12.440542   0.000000
   34       12.628939   0.000000
   35       12.979290   0.000000
   36       13.101083   0.000000
   37       17.247246   0.000000
   38       17.430083   0.000000
   39       17.763393   0.000000
   40       17.884821   0.000000
   41       19.737219   0.000000
   42       20.026915   0.000000
   43       22.754517   0.000000
   44       22.902329   0.000000
   45       22.926240   0.000000
   46       23.137000   0.000000
   47       23.200571   0.000000
   48       23.442604   0.000000
   49       23.471336   0.000000
   50       23.615543   0.000000
   51       26.003319   0.000000
   52       26.087163   0.000000
   53       26.100564   0.000000
   54       26.192573   0.000000
 
  0.8000000E-01  0.4323969E-17  0.0000000E+00  0.1600000E-02
    1       -9.322813   1.000000
    2       -9.084461   1.000000
    3       -6.429508   1.000000
    4       -6.206859   1.000000
    5       -5.985131   1.000000
    6       -5.490652   1.000000
    7       -5.261572   1.000000
    8       -4.741206   1.000000
    9       -4.482119   0.999999
   10       -4.247453   0.998857
   11       -3.777861   0.393530
   12       -3.087534   0.000000
   13       -2.918756   0.000000
   14       -2.455907   0.000000
   15        0.871993   0.000000
   16        0.984070   0.000000
   17        1.397785   0.000000
   18        1.614353   0.000000
   19        1.622490   0.000000
   20        1.806586   0.000000
   21        2.888068   0.000000
   22        3.068127   0.000000
   23        3.281770   0.000000
   24        3.429733   0.000000
   25        5.307129   0.000000
   26        5.485655   0.000000
   27        5.777787   0.000000
   28        5.903386   0.000000
   29        8.575650   0.000000
   30        8.736947   0.000000
   31        9.054686   0.000000
   32        9.200068   0.000000
   33       12.602388   0.000000
   34       12.789339   0.000000
   35       13.118206   0.000000
   36       13.240721   0.000000
   37       17.407990   0.000000
   38       17.589808   0.000000
   39       17.894197   0.000000
   40       18.009156   0.000000
   41       18.834168   0.000000
   42       18.923607   0.000000
   43       21.876840   0.000000
   44       22.009855   0.000000
   45       22.247800   0.000000
   46       22.385263   0.000000
   47       22.892576   0.000000
   48       23.045519   0.000000
   49       23.439258   0.000000
   50       23.570607   0.000000
   51       23.937495   0.000000
   52       24.015061   0.000000
   53       26.182721   0.000000
   54       26.264684   0.000000
 
  0.1200000E+00  0.3016506E-17  0.0000000E+00  0.1600000E-02
    1       -9.050432   1.000000
    2       -8.801777   1.000000
    3       -6.355839   1.000000
    4       -6.262898   1.000000
    5       -5.884266   1.000000
    6       -5.701820   1.000000
    7       -5.287042   1.000000
    8       -4.662744   1.000000
    9       -4.558141   1.000000
   10       -4.131201   0.987072
   11       -4.032263   0.936838
   12       -3.113717   0.000000
   13       -2.514249   0.000000
   14       -2.037127   0.000000
   15        1.115457   0.000000
   16        1.229323   0.000000
   17        1.666743   0.000000
   18        1.873240   0.000000
   19        1.879339   0.000000
   20        2.059539   0.000000
   21        3.156879   0.000000
   22        3.333289   0.000000
   23        3.524765   0.000000
   24        3.676371   0.000000
   25        5.577299   0.000000
   26        5.752401   0.000000
   27        6.016511   0.000000
   28        6.145899   0.000000
   29        8.845532   0.000000
   30        9.003839   0.000000
   31        9.289904   0.000000
   32        9.438091   0.000000
   33       12.871418   0.000000
   34       13.056118   0.000000
   35       13.348419   0.000000
   36       13.470957   0.000000
   37       17.233497   0.000000
   38       17.350833   0.000000
   39       17.675669   0.000000
   40       17.855844   0.000000
   41       18.147576   0.000000
   42       18.276992   0.000000
   43       20.770429   0.000000
   44       21.171866   0.000000
   45       21.332920   0.000000
   46       21.541998   0.000000
   47       21.758225   0.000000
   48       21.778831   0.000000
   49       23.180225   0.000000
   50       23.356878   0.000000
   51       23.648302   0.000000
   52       23.792053   0.000000
   53       25.195271   0.000000
   54       25.206546   0.000000
 
  0.1600000E+00  0.8647937E-17  0.0000000E+00  0.1600000E-02
    1       -8.691472   1.000000
    2       -8.418991   1.000000
    3       -6.331453   1.000000
    4       -6.252461   1.000000
    5       -5.928396   1.000000
    6       -5.736495   1.000000
    7       -5.316851   1.000000
    8       -4.690038   1.000000
    9       -4.521988   1.000000
   10       -4.267407   0.999292
   11       -3.964544   0.853121
   12       -3.148318   0.000001
   13       -2.016253   0.000000
   14       -1.560586   0.000000
   15        1.456677   0.000000
   16        1.573044   0.000000
   17        2.040085   0.000000
   18        2.224799   0.000000
   19        2.248610   0.000000
   20        2.413905   0.000000
   21        3.530748   0.000000
   22        3.703093   0.000000
   23        3.865519   0.000000
   24        4.021947   0.000000
   25        5.953258   0.000000
   26        6.124335   0.000000
   27        6.351066   0.000000
   28        6.485391   0.000000
   29        9.221476   0.000000
   30        9.376111   0.000000
   31        9.618604   0.000000
   32        9.769878   0.000000
   33       13.246499   0.000000
   34       13.428367   0.000000
   35       13.661540   0.000000
   36       13.774511   0.000000
   37       15.429957   0.000000
   38       15.645107   0.000000
   39       18.048396   0.000000
   40       18.226108   0.000000
   41       18.456046   0.000000
   42       18.580438   0.000000
   43       19.679281   0.000000
   44       19.713644   0.000000
   45       19.719756   0.000000
   46       20.080911   0.000000
   47       20.806847   0.000000
   48       20.954967   0.000000
   49       23.276543   0.000000
   50       23.397319   0.000000
   51       23.441771   0.000000
   52       23.574907   0.000000
   53       23.782377   0.000000
   54       23.898484   0.000000
 
  0.2000000E+00  0.1949395E-16  0.0000000E+00  0.1600000E-02
    1       -8.285128   1.000000
    2       -7.955015   1.000000
    3       -6.367507   1.000000
    4       -6.149403   1.000000
    5       -6.120253   1.000000
    6       -5.554452   1.000000
    7       -5.350880   1.000000
    8       -4.786566   1.000000
    9       -4.482009   0.999999
   10       -4.387830   0.999974
   11       -3.759916   0.345674
   12       -3.188894   0.000005
   13       -1.438324   0.000000
   14       -1.019819   0.000000
   15        1.895947   0.000000
   16        2.015415   0.000000
   17        2.515826   0.000000
   18        2.677462   0.000000
   19        2.720968   0.000000
   20        2.869825   0.000000
   21        4.007826   0.000000
   22        4.176341   0.000000
   23        4.304328   0.000000
   24        4.466447   0.000000
   25        6.433085   0.000000
   26        6.600080   0.000000
   27        6.781155   0.000000
   28        6.921015   0.000000
   29        9.701642   0.000000
   30        9.852330   0.000000
   31       10.037348   0.000000
   32       10.189222   0.000000
   33       13.415523   0.000000
   34       13.673259   0.000000
   35       13.726395   0.000000
   36       13.905459   0.000000
   37       14.254700   0.000000
   38       14.351661   0.000000
   39       17.732391   0.000000
   40       17.742908   0.000000
   41       18.524619   0.000000
   42       18.686192   0.000000
   43       18.702747   0.000000
   44       18.858661   0.000000
   45       18.976159   0.000000
   46       19.060245   0.000000
   47       20.171813   0.000000
   48       20.238636   0.000000
   49       21.435275   0.000000
   50       21.539088   0.000000
   51       21.732574   0.000000
   52       21.963213   0.000000
   53       22.009743   0.000000
   54       22.168256   0.000000
 
  0.2400000E+00  0.6033012E-17  0.0000000E+00  0.1600000E-02
    1       -7.916174   1.000000
    2       -7.448151   1.000000
    3       -6.354118   1.000000
    4       -6.312368   1.000000
    5       -5.932714   1.000000
    6       -5.386979   1.000000
    7       -5.349574   1.000000
    8       -4.834482   1.000000
    9       -4.674286   1.000000
   10       -4.236856   0.998537
   11       -3.528948   0.021167
   12       -3.232729   0.000019
   13       -0.785129   0.000000
   14       -0.408964   0.000000
   15        2.433358   0.000000
   16        2.556219   0.000000
   17        3.092375   0.000000
   18        3.231465   0.000000
   19        3.295193   0.000000
   20        3.427294   0.000000
   21        4.586311   0.000000
   22        4.751697   0.000000
   23        4.840929   0.000000
   24        5.009071   0.000000
   25        7.014594   0.000000
   26        7.177902   0.000000
   27        7.304292   0.000000
   28        7.448601   0.000000
   29       10.283290   0.000000
   30       10.430027   0.000000
   31       10.517866   0.000000
   32       10.630507   0.000000
   33       11.734559   0.000000
   34       12.036705   0.000000
   35       14.303363   0.000000
   36       14.479117   0.000000
   37       14.655128   0.000000
   38       14.801599   0.000000
   39       15.856476   0.000000
   40       15.880268   0.000000
   41       17.765151   0.000000
   42       18.122053   0.000000
   43       18.829950   0.000000
   44       18.922669   0.000000
   45       19.104650   0.000000
   46       19.279024   0.000000
   47       19.359173   0.000000
   48       19.424825   0.000000
   49       19.756700   0.000000
   50       19.775870   0.000000
   51       19.958783   0.000000
   52       19.981292   0.000000
   53       20.571344   0.000000
   54       20.591407   0.000000
 
  0.2800000E+00 -0.1087655E-16  0.0000000E+00  0.1600000E-02
    1       -7.698874   1.000000
    2       -6.975760   1.000000
    3       -6.536490   1.000000
    4       -6.148000   1.000000
    5       -5.597397   1.000000
    6       -5.422696   1.000000
    7       -5.134942   1.000000
    8       -4.841343   1.000000
    9       -4.749969   1.000000
   10       -4.081720   0.969842
   11       -3.284960   0.000087
   12       -3.277017   0.000069
   13       -0.057873   0.000000
   14        0.276199   0.000000
   15        3.068052   0.000000
   16        3.193790   0.000000
   17        3.768532   0.000000
   18        3.886592   0.000000
   19        3.970127   0.000000
   20        4.085801   0.000000
   21        5.264459   0.000000
   22        5.427607   0.000000
   23        5.472776   0.000000
   24        5.645716   0.000000
   25        7.695009   0.000000
   26        7.855138   0.000000
   27        7.904629   0.000000
   28        8.038471   0.000000
   29        9.794885   0.000000
   30       10.151510   0.000000
   31       10.960962   0.000000
   32       11.104521   0.000000
   33       11.316589   0.000000
   34       11.471215   0.000000
   35       14.054724   0.000000
   36       14.083728   0.000000
   37       15.021802   0.000000
   38       15.186622   0.000000
   39       15.240465   0.000000
   40       15.396088   0.000000
   41       16.942588   0.000000
   42       17.097645   0.000000
   43       17.217017   0.000000
   44       17.283486   0.000000
   45       17.875849   0.000000
   46       17.951981   0.000000
   47       18.097030   0.000000
   48       18.153384   0.000000
   49       19.293806   0.000000
   50       19.367722   0.000000
   51       19.380899   0.000000
   52       19.554004   0.000000
   53       19.783875   0.000000
   54       19.858100   0.000000
 
  0.3200000E+00  0.1729587E-16  0.0000000E+00  0.1600000E-02
    1       -7.646250   1.000000
    2       -6.693253   1.000000
    3       -6.648831   1.000000
    4       -5.981119   1.000000
    5       -5.456527   1.000000
    6       -5.015063   1.000000
    7       -4.996086   1.000000
    8       -4.896579   1.000000
    9       -4.422588   0.999991
   10       -3.931949   0.793730
   11       -3.318926   0.000220
   12       -3.043072   0.000000
   13        0.742708   0.000000
   14        1.037701   0.000000
   15        3.795240   0.000000
   16        3.920288   0.000000
   17        4.543179   0.000000
   18        4.640887   0.000000
   19        4.744433   0.000000
   20        4.842458   0.000000
   21        6.040108   0.000000
   22        6.182554   0.000000
   23        6.202613   0.000000
   24        6.346010   0.000000
   25        7.939548   0.000000
   26        8.224289   0.000000
   27        8.469220   0.000000
   28        8.627143   0.000000
   29        8.994975   0.000000
   30        9.024237   0.000000
   31       11.676218   0.000000
   32       11.798902   0.000000
   33       11.960748   0.000000
   34       12.147785   0.000000
   35       12.476639   0.000000
   36       12.505451   0.000000
   37       15.269464   0.000000
   38       15.411892   0.000000
   39       15.777288   0.000000
   40       15.947077   0.000000
   41       15.964512   0.000000
   42       16.109880   0.000000
   43       16.139298   0.000000
   44       16.231950   0.000000
   45       16.242022   0.000000
   46       16.326122   0.000000
   47       16.414166   0.000000
   48       16.549970   0.000000
   49       17.600831   0.000000
   50       17.679877   0.000000
   51       17.781576   0.000000
   52       17.840422   0.000000
   53       19.549073   0.000000
   54       19.644576   0.000000
 
  0.3600000E+00  0.1426410E-16  0.0000000E+00  0.1600000E-02
    1       -7.677190   1.000000
    2       -6.820329   1.000000
    3       -6.508087   1.000000
    4       -5.855819   1.000000
    5       -5.487119   1.000000
    6       -5.106745   1.000000
    7       -4.726553   1.000000
    8       -4.190923   0.995983
    9       -3.860340   0.622890
   10       -3.760956   0.348390
   11       -3.355863   0.000569
   12       -2.819868   0.000000
   13        1.613697   0.000000
   14        1.874083   0.000000
   15        4.585108   0.000000
   16        4.676565   0.000000
   17        5.414309   0.000000
   18        5.477872   0.000000
   19        5.615581   0.000000
   20        5.658363   0.000000
   21        6.344975   0.000000
   22        6.617551   0.000000
   23        6.908550   0.000000
   24        7.069527   0.000000
   25        7.379164   0.000000
   26        7.418715   0.000000
   27        9.306719   0.000000
   28        9.455629   0.000000
   29        9.581815   0.000000
   30        9.751023   0.000000
   31       10.816454   0.000000
   32       10.860477   0.000000
   33       12.688203   0.000000
   34       12.706979   0.000000
   35       12.820704   0.000000
   36       12.912709   0.000000
   37       13.713387   0.000000
   38       13.841114   0.000000
   39       14.417278   0.000000
   40       14.495574   0.000000
   41       14.632852   0.000000
   42       14.696779   0.000000
   43       15.636634   0.000000
   44       15.914397   0.000000
   45       15.928163   0.000000
   46       15.976782   0.000000
   47       16.091648   0.000000
   48       16.168312   0.000000
   49       16.690181   0.000000
   50       16.851767   0.000000
   51       16.857851   0.000000
   52       16.983101   0.000000
   53       18.340699   0.000000
   54       18.366341   0.000000
 
  0.4000000E+00  0.3898789E-16  0.0000000E+00  0.1600000E-02
    1       -7.730799   1.000000
    2       -6.917284   1.000000
    3       -6.479596   1.000000
    4       -5.764430   1.000000
    5       -5.512276   1.000000
    6       -5.193043   1.000000
    7       -4.563667   1.000000
    8       -3.701976   0.209913
    9       -3.387108   0.001210
   10       -3.278939   0.000073
   11       -3.044925   0.000000
   12       -2.631783   0.000000
   13        2.544851   0.000000
   14        2.776340   0.000000
   15        4.524186   0.000000
   16        4.940071   0.000000
   17        5.926890   0.000000
   18        5.959581   0.000000
   19        6.374238   0.000000
   20        6.544539   0.000000
   21        6.573569   0.000000
   22        6.723734   0.000000
   23        7.838712   0.000000
   24        7.989772   0.000000
   25        8.091621   0.000000
   26        8.277365   0.000000
   27        9.270610   0.000000
   28        9.306961   0.000000
   29       10.457143   0.000000
   30       10.460475   0.000000
   31       10.598690   0.000000
   32       10.649764   0.000000
   33       12.074323   0.000000
   34       12.210225   0.000000
   35       12.823234   0.000000
   36       12.883827   0.000000
   37       13.035875   0.000000
   38       13.094364   0.000000
   39       13.652836   0.000000
   40       13.695420   0.000000
   41       13.791021   0.000000
   42       13.903221   0.000000
   43       14.366422   0.000000
   44       14.526661   0.000000
   45       14.538064   0.000000
   46       14.685451   0.000000
   47       15.178727   0.000000
   48       15.459088   0.000000
   49       16.774604   0.000000
   50       16.782090   0.000000
   51       16.948840   0.000000
   52       16.952750   0.000000
   53       17.681817   0.000000
   54       17.785407   0.000000
 
  0.4400000E+00 -0.1282431E-16  0.0000000E+00  0.1600000E-02
    1       -7.777514   1.000000
    2       -6.982631   1.000000
    3       -6.490383   1.000000
    4       -5.703842   1.000000
    5       -5.530091   1.000000
    6       -5.250690   1.000000
    7       -4.446749   0.999996
    8       -3.624890   0.088220
    9       -3.406842   0.001904
   10       -2.501536   0.000000
   11       -2.373474   0.000000
   12       -2.264694   0.000000
   13        3.376670   0.000000
   14        3.499364   0.000000
   15        3.710704   0.000000
   16        4.019374   0.000000
   17        6.765712   0.000000
   18        6.902675   0.000000
   19        7.310790   0.000000
   20        7.424142   0.000000
   21        7.570387   0.000000
   22        7.776601   0.000000
   23        8.024283   0.000000
   24        8.056051   0.000000
   25        9.085965   0.000000
   26        9.093955   0.000000
   27        9.239536   0.000000
   28        9.295429   0.000000
   29       10.549714   0.000000
   30       10.698489   0.000000
   31       11.273414   0.000000
   32       11.332368   0.000000
   33       11.466427   0.000000
   34       11.550103   0.000000
   35       11.558505   0.000000
   36       11.658157   0.000000
   37       11.724025   0.000000
   38       11.821453   0.000000
   39       12.872359   0.000000
   40       12.982121   0.000000
   41       13.042377   0.000000
   42       13.164503   0.000000
   43       14.694112   0.000000
   44       14.718872   0.000000
   45       14.857413   0.000000
   46       14.863106   0.000000
   47       14.913804   0.000000
   48       15.133089   0.000000
   49       15.354145   0.000000
   50       15.497224   0.000000
   51       15.519680   0.000000
   52       15.620493   0.000000
   53       18.362242   0.000000
   54       18.496010   0.000000
 
  0.4800000E+00  0.1206602E-16  0.0000000E+00  0.1600000E-02
    1       -7.803707   1.000000
    2       -7.015377   1.000000
    3       -6.503057   1.000000
    4       -5.673669   1.000000
    5       -5.539298   1.000000
    6       -5.279119   1.000000
    7       -4.385539   0.999972
    8       -3.585628   0.051612
    9       -3.417508   0.002415
   10       -2.428306   0.000000
   11       -1.721865   0.000000
   12       -1.708148   0.000000
   13        2.550782   0.000000
   14        3.312517   0.000000
   15        4.306130   0.000000
   16        4.512213   0.000000
   17        6.806702   0.000000
   18        6.877538   0.000000
   19        7.845566   0.000000
   20        8.004769   0.000000
   21        8.698186   0.000000
   22        8.705917   0.000000
   23        8.907545   0.000000
   24        8.917586   0.000000
   25        9.214152   0.000000
   26        9.359839   0.000000
   27        9.924717   0.000000
   28        9.980087   0.000000
   29       10.124856   0.000000
   30       10.204576   0.000000
   31       10.252642   0.000000
   32       10.353961   0.000000
   33       10.424888   0.000000
   34       10.535909   0.000000
   35       11.484445   0.000000
   36       11.570351   0.000000
   37       11.651583   0.000000
   38       11.767932   0.000000
   39       12.659497   0.000000
   40       12.730197   0.000000
   41       12.818262   0.000000
   42       12.909916   0.000000
   43       13.950435   0.000000
   44       14.036400   0.000000
   45       14.112156   0.000000
   46       14.196394   0.000000
   47       14.705125   0.000000
   48       14.964406   0.000000
   49       15.920839   0.000000
   50       15.927803   0.000000
   51       16.067786   0.000000
   52       16.104677   0.000000
   53       17.225715   0.000000
   54       17.230488   0.000000
 
 -0.4800000E+00 -0.1206602E-16  0.0000000E+00  0.1600000E-02
    1       -7.803707   1.000000
    2       -7.015377   1.000000
    3       -6.503057   1.000000
    4       -5.673669   1.000000
    5       -5.539298   1.000000
    6       -5.279119   1.000000
    7       -4.385539   0.999972
    8       -3.585628   0.051612
    9       -3.417508   0.002415
   10       -2.428306   0.000000
   11       -1.721865   0.000000
   12       -1.708148   0.000000
   13        2.550782   0.000000
   14        3.312517   0.000000
   15        4.306130   0.000000
   16        4.512212   0.000000
   17        6.806702   0.000000
   18        6.877538   0.000000
   19        7.845567   0.000000
   20        8.004773   0.000000
   21        8.698177   0.000000
   22        8.705900   0.000000
   23        8.907549   0.000000
   24        8.917598   0.000000
   25        9.214152   0.000000
   26        9.359834   0.000000
   27        9.924736   0.000000
   28        9.980108   0.000000
   29       10.124844   0.000000
   30       10.204552   0.000000
   31       10.252654   0.000000
   32       10.353965   0.000000
   33       10.424881   0.000000
   34       10.535908   0.000000
   35       11.484441   0.000000
   36       11.570325   0.000000
   37       11.651607   0.000000
   38       11.767933   0.000000
   39       12.659495   0.000000
   40       12.730196   0.000000
   41       12.818262   0.000000
   42       12.909920   0.000000
   43       13.950438   0.000000
   44       14.036402   0.000000
   45       14.112155   0.000000
   46       14.196391   0.000000
   47       14.705126   0.000000
   48       14.964407   0.000000
   49       15.920843   0.000000
   50       15.927803   0.000000
   51       16.067781   0.000000
   52       16.104677   0.000000
   53       17.225715   0.000000
   54       17.230486   0.000000
 
 -0.4400000E+00  0.5705003E-17  0.0000000E+00  0.1600000E-02
    1       -7.777514   1.000000
    2       -6.982631   1.000000
    3       -6.490383   1.000000
    4       -5.703842   1.000000
    5       -5.530091   1.000000
    6       -5.250691   1.000000
    7       -4.446749   0.999996
    8       -3.624890   0.088220
    9       -3.406842   0.001904
   10       -2.501536   0.000000
   11       -2.373474   0.000000
   12       -2.264693   0.000000
   13        3.376669   0.000000
   14        3.499363   0.000000
   15        3.710705   0.000000
   16        4.019374   0.000000
   17        6.765715   0.000000
   18        6.902682   0.000000
   19        7.310774   0.000000
   20        7.424123   0.000000
   21        7.570401   0.000000
   22        7.776611   0.000000
   23        8.024281   0.000000
   24        8.056053   0.000000
   25        9.085973   0.000000
   26        9.093957   0.000000
   27        9.239529   0.000000
   28        9.295427   0.000000
   29       10.549711   0.000000
   30       10.698482   0.000000
   31       11.273433   0.000000
   32       11.332388   0.000000
   33       11.466411   0.000000
   34       11.549983   0.000000
   35       11.558610   0.000000
   36       11.658158   0.000000
   37       11.724025   0.000000
   38       11.821454   0.000000
   39       12.872355   0.000000
   40       12.982091   0.000000
   41       13.042406   0.000000
   42       13.164504   0.000000
   43       14.694120   0.000000
   44       14.718878   0.000000
   45       14.857407   0.000000
   46       14.863101   0.000000
   47       14.913804   0.000000
   48       15.133087   0.000000
   49       15.354145   0.000000
   50       15.497225   0.000000
   51       15.519681   0.000000
   52       15.620492   0.000000
   53       18.362240   0.000000
   54       18.496017   0.000000
 
 -0.4000000E+00 -0.3898789E-16  0.0000000E+00  0.1600000E-02
    1       -7.730799   1.000000
    2       -6.917284   1.000000
    3       -6.479597   1.000000
    4       -5.764429   1.000000
    5       -5.512276   1.000000
    6       -5.193044   1.000000
    7       -4.563667   1.000000
    8       -3.701976   0.209914
    9       -3.387106   0.001210
   10       -3.278941   0.000073
   11       -3.044925   0.000000
   12       -2.631783   0.000000
   13        2.544851   0.000000
   14        2.776340   0.000000
   15        4.524186   0.000000
   16        4.940073   0.000000
   17        5.926885   0.000000
   18        5.959581   0.000000
   19        6.374234   0.000000
   20        6.544553   0.000000
   21        6.573558   0.000000
   22        6.723737   0.000000
   23        7.838714   0.000000
   24        7.989788   0.000000
   25        8.091606   0.000000
   26        8.277365   0.000000
   27        9.270610   0.000000
   28        9.306960   0.000000
   29       10.457143   0.000000
   30       10.460473   0.000000
   31       10.598690   0.000000
   32       10.649767   0.000000
   33       12.074320   0.000000
   34       12.210220   0.000000
   35       12.823252   0.000000
   36       12.883841   0.000000
   37       13.035867   0.000000
   38       13.094352   0.000000
   39       13.652835   0.000000
   40       13.695421   0.000000
   41       13.791016   0.000000
   42       13.903220   0.000000
   43       14.366420   0.000000
   44       14.526580   0.000000
   45       14.538146   0.000000
   46       14.685452   0.000000
   47       15.178727   0.000000
   48       15.459087   0.000000
   49       16.774605   0.000000
   50       16.782096   0.000000
   51       16.948835   0.000000
   52       16.952750   0.000000
   53       17.681819   0.000000
   54       17.785417   0.000000
 
 -0.3600000E+00 -0.1426410E-16  0.0000000E+00  0.1600000E-02
    1       -7.677190   1.000000
    2       -6.820329   1.000000
    3       -6.508087   1.000000
    4       -5.855819   1.000000
    5       -5.487118   1.000000
    6       -5.106746   1.000000