hBN-Cu
  0.997000000000000
     6.759865    0.000000    0.000000
     3.379933    5.854215    0.000000
     0.000000    0.000000   36.380426
   B    Cu   N    Si
     7    35     7     6
Direct
  0.047649  0.761852  0.341320
  0.190499  0.047649  0.341320
  0.333333  0.333333  0.341638
  0.476338  0.618962  0.341329
  0.618962  0.904700  0.341329
  0.761852  0.190499  0.341320
  0.904700  0.476338  0.341329
  0.000000  0.000000  0.029105
  0.142857  0.285714  0.029105
  0.285714  0.571429  0.029105
  0.428571  0.857143  0.029105
  0.571429  0.142857  0.029105
  0.714286  0.428571  0.029105
  0.857143  0.714286  0.029105
  0.095217  0.523789  0.085835
  0.238084  0.809463  0.085843
  0.380993  0.095217  0.085835
  0.523789  0.380993  0.085835
  0.666667  0.666667  0.085838
  0.809463  0.952454  0.085843
  0.952454  0.238084  0.085843
  0.047479  0.761929  0.142839
  0.190593  0.047479  0.142839
  0.333333  0.333333  0.142824
  0.476214  0.619001  0.142840
  0.619001  0.904786  0.142840
  0.761929  0.190593  0.142839
  0.904786  0.476214  0.142840
  0.000000  0.000000  0.199878
  0.142940  0.285628  0.199857
  0.285628  0.571433  0.199857
  0.428635  0.856997  0.199894
  0.571433  0.142940  0.199857
  0.714368  0.428635  0.199894
  0.856997  0.714368  0.199894
  0.095268  0.523731  0.256606
  0.238081  0.809440  0.256650
  0.381001  0.095268  0.256606
  0.523731  0.381001  0.256606
  0.666667  0.666667  0.256700
  0.809440  0.952480  0.256650
  0.952480  0.238081  0.256650
  0.095234  0.523862  0.341683
  0.238114  0.809513  0.341360
  0.380904  0.095234  0.341683
  0.523862  0.380904  0.341683
  0.666667  0.666667  0.341253
  0.809513  0.952374  0.341360
  0.952374  0.238114  0.341360
  0.667006  0.000348  0.437977
  0.000348  0.332646  0.437977
  0.332646  0.667006  0.437977
  0.666667  0.666667  0.450410
  0.000000  0.000000  0.451251
  0.333333  0.333333  0.450840
 
   3   4  6
 -.58808731146E+00 -.49229889795E+00 -.22638729240E+00 0.16091721338E+00 0.65062908615E+00
 0.11747548292E+01 0.14641090828E+01 0.14712185790E+01 0.17805509835E+01 0.23207204397E+01
 0.27875426539E+01 0.31669065787E+01 0.34957521291E+01 0.37406456181E+01 0.39230303512E+01
 0.40339461164E+01 0.40852957334E+01 0.40793746319E+01 0.40232358359E+01 0.39257929714E+01
 0.37969029109E+01 0.36342862421E+01 0.34655257541E+01 0.33046766433E+01 0.31124528951E+01
 0.29600600755E+01 0.28612847659E+01 0.27993618586E+01 0.27559868859E+01 0.27582814549E+01
 0.28032702126E+01 0.28890447514E+01 0.29888170753E+01 0.31221304416E+01 0.32651342641E+01
 0.34247875585E+01 0.35719065587E+01 0.36955711282E+01 0.37948703104E+01 0.38408041206E+01
 0.30077751315E+01 0.33553045350E+01 0.36499220936E+01 0.38634448529E+01 0.40240189089E+01
 0.90808538127E+00 0.91101277986E+00 0.91432981807E+00 0.91624956704E+00 0.91625034554E+00
 0.91507801860E+00 0.91278030661E+00 0.90856613733E+00 0.91018104985E+00 0.91331021909E+00
 0.91037056544E+00 0.91188453595E+00 0.91101858414E+00 0.91162900978E+00 0.91117446003E+00
 0.91150608124E+00 0.91120348291E+00 0.91157917385E+00 0.91141099691E+00 0.91150197239E+00
 0.91148055728E+00 0.91145929903E+00 0.91110753827E+00 0.91137896886E+00 0.91154840736E+00
 0.91431579573E+00 0.90988471419E+00  
