hBN-Cu
  0.997000000000000
     6.759865    0.000000    0.000000
     3.379933    5.854215    0.000000
     0.000000    0.000000   36.380426
   B    Cu   N    Si
     7    35     7     6
Direct
  0.047649  0.761852  0.341320
  0.190499  0.047649  0.341320
  0.333333  0.333333  0.341638
  0.476338  0.618962  0.341329
  0.618962  0.904700  0.341329
  0.761852  0.190499  0.341320
  0.904700  0.476338  0.341329
  0.000000  0.000000  0.029105
  0.142857  0.285714  0.029105
  0.285714  0.571429  0.029105
  0.428571  0.857143  0.029105
  0.571429  0.142857  0.029105
  0.714286  0.428571  0.029105
  0.857143  0.714286  0.029105
  0.095217  0.523789  0.085835
  0.238084  0.809463  0.085843
  0.380993  0.095217  0.085835
  0.523789  0.380993  0.085835
  0.666667  0.666667  0.085838
  0.809463  0.952454  0.085843
  0.952454  0.238084  0.085843
  0.047479  0.761929  0.142839
  0.190593  0.047479  0.142839
  0.333333  0.333333  0.142824
  0.476214  0.619001  0.142840
  0.619001  0.904786  0.142840
  0.761929  0.190593  0.142839
  0.904786  0.476214  0.142840
  0.000000  0.000000  0.199878
  0.142940  0.285628  0.199857
  0.285628  0.571433  0.199857
  0.428635  0.856997  0.199894
  0.571433  0.142940  0.199857
  0.714368  0.428635  0.199894
  0.856997  0.714368  0.199894
  0.095268  0.523731  0.256606
  0.238081  0.809440  0.256650
  0.381001  0.095268  0.256606
  0.523731  0.381001  0.256606
  0.666667  0.666667  0.256700
  0.809440  0.952480  0.256650
  0.952480  0.238081  0.256650
  0.095234  0.523862  0.341683
  0.238114  0.809513  0.341360
  0.380904  0.095234  0.341683
  0.523862  0.380904  0.341683
  0.666667  0.666667  0.341253
  0.809513  0.952374  0.341360
  0.952374  0.238114  0.341360
  0.667006  0.000348  0.437977
  0.000348  0.332646  0.437977
  0.332646  0.667006  0.437977
  0.666667  0.666667  0.450410
  0.000000  0.000000  0.451251
  0.333333  0.333333  0.450840
 
   3   4  6
 0  1  2  3  4 
 5  6  7  8  9
 10 11 12 13 14
 15 16 17 18 19
 20 21 22 23 24
 25 26 27 28 29
 30 31 32 33 34
 35 36 37 38 39
 40 41 42 43 44 
 45 46 47 48 49
 50 51 52 53 54
 55 56 57 58 59
 60 61 62 63 64
 65 66 67 68 69
 70 71