  57  57   1   0
  0.8421053E+03  0.4000000E-08  0.4000000E-08  0.3000000E-08  0.5000000E-15
  1.000000000000000E-004
  CAR 
 CuPcF                                   
      1.86714482    -26.93811290   31     -4.37399435      1.00000000
    -26.938  0.0000E+00  0.0000E+00  0.0000E+00  0.0000E+00
    -25.978  0.0000E+00  0.0000E+00  0.0000E+00  0.0000E+00
    -25.018  0.2083E+01  0.2083E+01  0.3000E+01  0.3000E+01
    -24.058  0.4123E-02  0.1044E+01  0.4004E+01  0.4003E+01
    -23.097  0.5391E-09  0.7172E-11  0.5000E+01  0.5000E+01
    -22.137  0.3499E-01  0.6827E-02  0.7034E+01  0.7007E+01
    -21.177  0.4166E+01  0.4166E+01  0.1200E+02  0.1200E+02
    -20.217  0.0000E+00  0.0000E+00  0.1200E+02  0.1200E+02
    -19.257  0.1041E+01  0.1041E+01  0.1300E+02  0.1300E+02
    -18.297  0.0000E+00  0.0000E+00  0.2000E+02  0.2000E+02
    -17.336  0.2031E+01  0.1983E+01  0.2295E+02  0.2290E+02
    -16.376  0.3412E-08  0.4162E-09  0.2300E+02  0.2300E+02
    -15.416  0.4162E+01  0.4155E+01  0.2900E+02  0.2899E+02
    -14.456  0.1040E+01  0.1037E+01  0.3300E+02  0.3300E+02
    -13.496  0.2501E+01  0.3286E+01  0.3640E+02  0.3616E+02
    -12.535  0.1041E+01  0.1041E+01  0.4000E+02  0.4000E+02
    -11.575  0.7145E+01  0.6746E+01  0.4986E+02  0.4948E+02
    -10.615  0.5477E+01  0.5341E+01  0.5726E+02  0.5713E+02
     -9.655  0.2083E+01  0.1043E+01  0.6300E+02  0.6200E+02
     -8.695  0.7406E+01  0.7087E+01  0.7311E+02  0.7281E+02
     -7.735  0.2045E+01  0.1002E+01  0.8196E+02  0.7996E+02
     -6.774  0.2251E+01  0.3022E+01  0.8716E+02  0.8690E+02
     -5.814  0.0000E+00  0.0000E+00  0.9600E+02  0.9600E+02
     -4.854  0.1042E+01  0.1041E+01  0.9700E+02  0.9700E+02
     -3.894  0.3031E-08  0.9620E+00  0.9800E+02  0.9792E+02
     -2.934  0.0000E+00  0.0000E+00  0.1000E+03  0.1000E+03
     -1.974  0.3058E+01  0.3038E+01  0.1029E+03  0.1029E+03
     -1.013  0.0000E+00  0.0000E+00  0.1050E+03  0.1050E+03
     -0.053  0.6508E+01  0.6492E+01  0.1152E+03  0.1152E+03
      0.907  0.9373E+01  0.9373E+01  0.1620E+03  0.1620E+03
      1.867  0.0000E+00  0.0000E+00  0.1620E+03  0.1620E+03
      1.86714482    -26.93811290   31     -4.37399435      1.00000000
    -26.938  0.0000E+00  0.0000E+00  0.0000E+00  0.0000E+00  0.0000E+00  0.0000E+00  0.0000E+00  0.0000E+00  0.0000E+00  0.0000E+00  0.0000E+00  0.0000E+00  0.0000E+00  0.0000E+00  0.0000E+00  0.0000E+00  0.0000E+00  0.0000E+00
    -25.978  0.0000E+00  0.0000E+00  0.0000E+00  0.0000E+00  0.0000E+00  0.0000E+00  0.0000E+00  0.0000E+00  0.0000E+00  0.0000E+00  0.0000E+00  0.0000E+00  0.0000E+00  0.0000E+00  0.0000E+00  0.0000E+00  0.0000E+00  0.0000E+00
    -25.018  0.6936E-01  0.6980E-01  0.3662E-02  0.3570E-02  0.1067E-18  0.8948E-19  0.2498E-02  0.2480E-02  0.0000E+00  0.0000E+00  0.0000E+00  0.0000E+00  0.0000E+00  0.0000E+00  0.0000E+00  0.0000E+00  0.0000E+00  0.0000E+00
    -24.058  0.1211E-03  0.2912E-01  0.2944E-04  0.6473E-02  0.4347E-21  0.3846E-19  0.6754E-05  0.2142E-03  0.0000E+00  0.0000E+00  0.0000E+00  0.0000E+00  0.0000E+00  0.0000E+00  0.0000E+00  0.0000E+00  0.0000E+00  0.0000E+00
    -23.097  0.8855E-11  0.1173E-12  0.8620E-11  0.1143E-12  0.3954E-28  0.4992E-30  0.4008E-12  0.5326E-14  0.0000E+00  0.0000E+00  0.0000E+00  0.0000E+00  0.0000E+00  0.0000E+00  0.0000E+00  0.0000E+00  0.0000E+00  0.0000E+00
    -22.137  0.2736E-04  0.4605E-05  0.8764E-03  0.1680E-03  0.2558E-20  0.4254E-21  0.2423E-04  0.5225E-05  0.0000E+00  0.0000E+00  0.0000E+00  0.0000E+00  0.0000E+00  0.0000E+00  0.0000E+00  0.0000E+00  0.0000E+00  0.0000E+00
    -21.177  0.9729E-03  0.1210E-02  0.6192E-02  0.7006E-02  0.6587E-20  0.1005E-18  0.7636E-02  0.7377E-02  0.0000E+00  0.0000E+00  0.0000E+00  0.0000E+00  0.0000E+00  0.0000E+00  0.0000E+00  0.0000E+00  0.0000E+00  0.0000E+00
    -20.217  0.0000E+00  0.0000E+00  0.0000E+00  0.0000E+00  0.0000E+00  0.0000E+00  0.0000E+00  0.0000E+00  0.0000E+00  0.0000E+00  0.0000E+00  0.0000E+00  0.0000E+00  0.0000E+00  0.0000E+00  0.0000E+00  0.0000E+00  0.0000E+00
    -19.257  0.2865E-01  0.2841E-01  0.6825E-03  0.6944E-03  0.4840E-19  0.4319E-19  0.5781E-03  0.5871E-03  0.0000E+00  0.0000E+00  0.0000E+00  0.0000E+00  0.0000E+00  0.0000E+00  0.0000E+00  0.0000E+00  0.0000E+00  0.0000E+00
    -18.297  0.0000E+00  0.0000E+00  0.0000E+00  0.0000E+00  0.0000E+00  0.0000E+00  0.0000E+00  0.0000E+00  0.0000E+00  0.0000E+00  0.0000E+00  0.0000E+00  0.0000E+00  0.0000E+00  0.0000E+00  0.0000E+00  0.0000E+00  0.0000E+00
    -17.336  0.5947E-01  0.5810E-01  0.1727E-01  0.1702E-01  0.2082E-18  0.2005E-18  0.2982E-03  0.2918E-03  0.0000E+00  0.0000E+00  0.0000E+00  0.0000E+00  0.0000E+00  0.0000E+00  0.0000E+00  0.0000E+00  0.0000E+00  0.0000E+00
    -16.376  0.6683E-10  0.8137E-11  0.6073E-10  0.7681E-11  0.5049E-27  0.4899E-28  0.3447E-11  0.4136E-12  0.0000E+00  0.0000E+00  0.0000E+00  0.0000E+00  0.0000E+00  0.0000E+00  0.0000E+00  0.0000E+00  0.0000E+00  0.0000E+00
    -15.416  0.1277E-01  0.1212E-01  0.1356E-01  0.1220E-01  0.2255E-18  0.2739E-18  0.2301E-01  0.2380E-01  0.0000E+00  0.0000E+00  0.0000E+00  0.0000E+00  0.0000E+00  0.0000E+00  0.0000E+00  0.0000E+00  0.0000E+00  0.0000E+00
    -14.456  0.4846E-02  0.4887E-02  0.1158E-03  0.7558E-04  0.1990E-19  0.1374E-19  0.8391E-02  0.8156E-02  0.0000E+00  0.0000E+00  0.0000E+00  0.0000E+00  0.0000E+00  0.0000E+00  0.0000E+00  0.0000E+00  0.0000E+00  0.0000E+00
    -13.496  0.1488E-01  0.1728E-01  0.4997E-01  0.4637E-01  0.4152E-17  0.3831E-17  0.9969E-02  0.1252E-01  0.0000E+00  0.0000E+00  0.0000E+00  0.0000E+00  0.0000E+00  0.0000E+00  0.0000E+00  0.0000E+00  0.0000E+00  0.0000E+00
    -12.535  0.5637E-03  0.6637E-03  0.3654E-01  0.3678E-01  0.7812E-17  0.7782E-17  0.6682E-02  0.6795E-02  0.0000E+00  0.0000E+00  0.0000E+00  0.0000E+00  0.0000E+00  0.0000E+00  0.0000E+00  0.0000E+00  0.0000E+00  0.0000E+00
    -11.575  0.1029E-01  0.9550E-02  0.8601E-02  0.8144E-02  0.4768E-01  0.4268E-01  0.3508E-01  0.3510E-01  0.0000E+00  0.0000E+00  0.0000E+00  0.0000E+00  0.0000E+00  0.0000E+00  0.0000E+00  0.0000E+00  0.0000E+00  0.0000E+00
    -10.615  0.1412E-02  0.1520E-02  0.6099E-02  0.6605E-02  0.1937E-01  0.1924E-01  0.4017E-02  0.4022E-02  0.0000E+00  0.0000E+00  0.0000E+00  0.0000E+00  0.0000E+00  0.0000E+00  0.0000E+00  0.0000E+00  0.0000E+00  0.0000E+00
     -9.655  0.8314E-04  0.4348E-06  0.8179E-03  0.6278E-07  0.2877E-01  0.2878E-01  0.1172E-01  0.1197E-04  0.0000E+00  0.0000E+00  0.0000E+00  0.0000E+00  0.0000E+00  0.0000E+00  0.0000E+00  0.0000E+00  0.0000E+00  0.0000E+00
     -8.695  0.8760E-02  0.8619E-02  0.6030E-02  0.5920E-02  0.8404E-02  0.7277E-02  0.3868E-01  0.3387E-01  0.0000E+00  0.0000E+00  0.0000E+00  0.0000E+00  0.0000E+00  0.0000E+00  0.0000E+00  0.0000E+00  0.0000E+00  0.0000E+00
     -7.735  0.2584E-10  0.9346E-03  0.2937E-13  0.1663E-04  0.1541E-01  0.1906E-07  0.1010E-10  0.8946E-03  0.0000E+00  0.0000E+00  0.0000E+00  0.0000E+00  0.0000E+00  0.0000E+00  0.0000E+00  0.0000E+00  0.0000E+00  0.0000E+00
     -6.774  0.1207E-02  0.5141E-03  0.2609E-02  0.1509E-02  0.1008E-02  0.8604E-03  0.3337E-03  0.4034E-03  0.0000E+00  0.0000E+00  0.0000E+00  0.0000E+00  0.0000E+00  0.0000E+00  0.0000E+00  0.0000E+00  0.0000E+00  0.0000E+00
     -5.814  0.0000E+00  0.0000E+00  0.0000E+00  0.0000E+00  0.0000E+00  0.0000E+00  0.0000E+00  0.0000E+00  0.0000E+00  0.0000E+00  0.0000E+00  0.0000E+00  0.0000E+00  0.0000E+00  0.0000E+00  0.0000E+00  0.0000E+00  0.0000E+00
     -4.854  0.6816E-06  0.5045E-21  0.5048E-06  0.4536E-19  0.4317E-01  0.4320E-01  0.1270E-05  0.1298E-18  0.0000E+00  0.0000E+00  0.0000E+00  0.0000E+00  0.0000E+00  0.0000E+00  0.0000E+00  0.0000E+00  0.0000E+00  0.0000E+00
     -3.894  0.6056E-26  0.1406E-02  0.5362E-26  0.1144E-02  0.7929E-10  0.1225E-11  0.4769E-26  0.1953E-02  0.0000E+00  0.0000E+00  0.0000E+00  0.0000E+00  0.0000E+00  0.0000E+00  0.0000E+00  0.0000E+00  0.0000E+00  0.0000E+00
     -2.934  0.0000E+00  0.0000E+00  0.0000E+00  0.0000E+00  0.0000E+00  0.0000E+00  0.0000E+00  0.0000E+00  0.0000E+00  0.0000E+00  0.0000E+00  0.0000E+00  0.0000E+00  0.0000E+00  0.0000E+00  0.0000E+00  0.0000E+00  0.0000E+00
     -1.974  0.4645E-16  0.2951E-17  0.9283E-16  0.6900E-18  0.2275E-01  0.2204E-01  0.2120E-16  0.1994E-16  0.0000E+00  0.0000E+00  0.0000E+00  0.0000E+00  0.0000E+00  0.0000E+00  0.0000E+00  0.0000E+00  0.0000E+00  0.0000E+00
     -1.013  0.0000E+00  0.0000E+00  0.0000E+00  0.0000E+00  0.0000E+00  0.0000E+00  0.0000E+00  0.0000E+00  0.0000E+00  0.0000E+00  0.0000E+00  0.0000E+00  0.0000E+00  0.0000E+00  0.0000E+00  0.0000E+00  0.0000E+00  0.0000E+00
     -0.053  0.2861E-03  0.2834E-03  0.1899E-03  0.1826E-03  0.3088E-01  0.3017E-01  0.4331E-03  0.4405E-03  0.0000E+00  0.0000E+00  0.0000E+00  0.0000E+00  0.0000E+00  0.0000E+00  0.0000E+00  0.0000E+00  0.0000E+00  0.0000E+00
      0.907  0.3502E-04  0.3458E-04  0.2131E-04  0.2032E-04  0.3049E-03  0.3362E-03  0.5880E-04  0.5700E-04  0.0000E+00  0.0000E+00  0.0000E+00  0.0000E+00  0.0000E+00  0.0000E+00  0.0000E+00  0.0000E+00  0.0000E+00  0.0000E+00
      1.867  0.0000E+00  0.0000E+00  0.0000E+00  0.0000E+00  0.0000E+00  0.0000E+00  0.0000E+00  0.0000E+00  0.0000E+00  0.0000E+00  0.0000E+00  0.0000E+00  0.0000E+00  0.0000E+00  0.0000E+00  0.0000E+00  0.0000E+00  0.0000E+00
      1.86714482    -26.93811290   31     -4.37399435      1.00000000
    -26.938  0.0000E+00  0.0000E+00  0.0000E+00  0.0000E+00  0.0000E+00  0.0000E+00  0.0000E+00  0.0000E+00  0.0000E+00  0.0000E+00  0.0000E+00  0.0000E+00  0.0000E+00  0.0000E+00  0.0000E+00  0.0000E+00  0.0000E+00  0.0000E+00
    -25.978  0.0000E+00  0.0000E+00  0.0000E+00  0.0000E+00  0.0000E+00  0.0000E+00  0.0000E+00  0.0000E+00  0.0000E+00  0.0000E+00  0.0000E+00  0.0000E+00  0.0000E+00  0.0000E+00  0.0000E+00  0.0000E+00  0.0000E+00  0.0000E+00
    -25.018  0.1241E-01  0.1254E-01  0.4430E-03  0.4422E-03  0.1417E-20  0.7634E-20  0.2082E-02  0.2071E-02  0.0000E+00  0.0000E+00  0.0000E+00  0.0000E+00  0.0000E+00  0.0000E+00  0.0000E+00  0.0000E+00  0.0000E+00  0.0000E+00
    -24.058  0.3967E-05  0.1159E-01  0.1128E-05  0.6087E-03  0.2857E-24  0.5765E-20  0.9602E-06  0.1466E-02  0.0000E+00  0.0000E+00  0.0000E+00  0.0000E+00  0.0000E+00  0.0000E+00  0.0000E+00  0.0000E+00  0.0000E+00  0.0000E+00
    -23.097  0.3294E-11  0.4677E-13  0.4959E-12  0.6779E-14  0.7375E-30  0.2692E-31  0.2154E-12  0.2897E-14  0.0000E+00  0.0000E+00  0.0000E+00  0.0000E+00  0.0000E+00  0.0000E+00  0.0000E+00  0.0000E+00  0.0000E+00  0.0000E+00
    -22.137  0.2513E-03  0.5566E-04  0.4845E-04  0.9851E-05  0.1561E-21  0.1223E-22  0.1219E-05  0.1818E-06  0.0000E+00  0.0000E+00  0.0000E+00  0.0000E+00  0.0000E+00  0.0000E+00  0.0000E+00  0.0000E+00  0.0000E+00  0.0000E+00
    -21.177  0.8327E-01  0.8027E-01  0.1226E-02  0.1127E-02  0.1976E-18  0.7577E-18  0.9206E-02  0.9553E-02  0.0000E+00  0.0000E+00  0.0000E+00  0.0000E+00  0.0000E+00  0.0000E+00  0.0000E+00  0.0000E+00  0.0000E+00  0.0000E+00
    -20.217  0.0000E+00  0.0000E+00  0.0000E+00  0.0000E+00  0.0000E+00  0.0000E+00  0.0000E+00  0.0000E+00  0.0000E+00  0.0000E+00  0.0000E+00  0.0000E+00  0.0000E+00  0.0000E+00  0.0000E+00  0.0000E+00  0.0000E+00  0.0000E+00
    -19.257  0.1758E-01  0.1759E-01  0.4386E-02  0.4389E-02  0.4154E-20  0.4186E-20  0.1128E-04  0.9148E-05  0.0000E+00  0.0000E+00  0.0000E+00  0.0000E+00  0.0000E+00  0.0000E+00  0.0000E+00  0.0000E+00  0.0000E+00  0.0000E+00
    -18.297  0.0000E+00  0.0000E+00  0.0000E+00  0.0000E+00  0.0000E+00  0.0000E+00  0.0000E+00  0.0000E+00  0.0000E+00  0.0000E+00  0.0000E+00  0.0000E+00  0.0000E+00  0.0000E+00  0.0000E+00  0.0000E+00  0.0000E+00  0.0000E+00
    -17.336  0.8635E-02  0.8398E-02  0.4410E-02  0.4331E-02  0.4028E-19  0.3623E-19  0.7621E-02  0.7421E-02  0.0000E+00  0.0000E+00  0.0000E+00  0.0000E+00  0.0000E+00  0.0000E+00  0.0000E+00  0.0000E+00  0.0000E+00  0.0000E+00
    -16.376  0.8515E-11  0.1016E-11  0.1269E-10  0.1620E-11  0.2097E-27  0.1581E-28  0.1926E-10  0.2239E-11  0.0000E+00  0.0000E+00  0.0000E+00  0.0000E+00  0.0000E+00  0.0000E+00  0.0000E+00  0.0000E+00  0.0000E+00  0.0000E+00
    -15.416  0.2603E-01  0.2646E-01  0.2391E-01  0.2408E-01  0.9681E-19  0.1215E-18  0.3920E-01  0.3913E-01  0.0000E+00  0.0000E+00  0.0000E+00  0.0000E+00  0.0000E+00  0.0000E+00  0.0000E+00  0.0000E+00  0.0000E+00  0.0000E+00
    -14.456  0.1456E-01  0.1454E-01  0.4760E-02  0.4743E-02  0.1670E-19  0.2034E-19  0.1022E-02  0.1067E-02  0.0000E+00  0.0000E+00  0.0000E+00  0.0000E+00  0.0000E+00  0.0000E+00  0.0000E+00  0.0000E+00  0.0000E+00  0.0000E+00
    -13.496  0.3328E-02  0.6304E-02  0.1224E-01  0.2323E-01  0.9446E-18  0.1214E-17  0.1115E-01  0.1687E-01  0.0000E+00  0.0000E+00  0.0000E+00  0.0000E+00  0.0000E+00  0.0000E+00  0.0000E+00  0.0000E+00  0.0000E+00  0.0000E+00
    -12.535  0.1020E-02  0.9611E-03  0.1951E-04  0.1362E-04  0.2204E-17  0.2235E-17  0.5984E-03  0.5413E-03  0.0000E+00  0.0000E+00  0.0000E+00  0.0000E+00  0.0000E+00  0.0000E+00  0.0000E+00  0.0000E+00  0.0000E+00  0.0000E+00
    -11.575  0.1801E-01  0.1669E-01  0.1844E-01  0.2016E-01  0.1867E-01  0.1697E-01  0.3669E-01  0.3826E-01  0.0000E+00  0.0000E+00  0.0000E+00  0.0000E+00  0.0000E+00  0.0000E+00  0.0000E+00  0.0000E+00  0.0000E+00  0.0000E+00
    -10.615  0.1355E-01  0.1409E-01  0.4188E-01  0.4044E-01  0.1914E-01  0.1953E-01  0.1547E-01  0.1369E-01  0.0000E+00  0.0000E+00  0.0000E+00  0.0000E+00  0.0000E+00  0.0000E+00  0.0000E+00  0.0000E+00  0.0000E+00  0.0000E+00
     -9.655  0.1910E-03  0.3168E-09  0.5244E-02  0.1373E-05  0.2646E-02  0.2641E-02  0.1372E-01  0.1551E-04  0.0000E+00  0.0000E+00  0.0000E+00  0.0000E+00  0.0000E+00  0.0000E+00  0.0000E+00  0.0000E+00  0.0000E+00  0.0000E+00
     -8.695  0.4211E-02  0.4132E-02  0.7118E-02  0.9458E-02  0.3550E-02  0.2887E-02  0.6174E-01  0.5709E-01  0.0000E+00  0.0000E+00  0.0000E+00  0.0000E+00  0.0000E+00  0.0000E+00  0.0000E+00  0.0000E+00  0.0000E+00  0.0000E+00
     -7.735  0.1043E-12  0.2826E-04  0.1646E-10  0.4549E-06  0.8979E-02  0.2174E-07  0.6335E-13  0.1391E-04  0.0000E+00  0.0000E+00  0.0000E+00  0.0000E+00  0.0000E+00  0.0000E+00  0.0000E+00  0.0000E+00  0.0000E+00  0.0000E+00
     -6.774  0.3069E-03  0.2208E-03  0.1372E-02  0.7156E-03  0.1136E-01  0.1201E-01  0.1804E-02  0.1333E-02  0.0000E+00  0.0000E+00  0.0000E+00  0.0000E+00  0.0000E+00  0.0000E+00  0.0000E+00  0.0000E+00  0.0000E+00  0.0000E+00
     -5.814  0.0000E+00  0.0000E+00  0.0000E+00  0.0000E+00  0.0000E+00  0.0000E+00  0.0000E+00  0.0000E+00  0.0000E+00  0.0000E+00  0.0000E+00  0.0000E+00  0.0000E+00  0.0000E+00  0.0000E+00  0.0000E+00  0.0000E+00  0.0000E+00
     -4.854  0.4915E-06  0.5547E-22  0.1209E-06  0.4162E-20  0.2178E-02  0.2173E-02  0.1434E-05  0.2023E-18  0.0000E+00  0.0000E+00  0.0000E+00  0.0000E+00  0.0000E+00  0.0000E+00  0.0000E+00  0.0000E+00  0.0000E+00  0.0000E+00
     -3.894  0.3952E-26  0.1031E-02  0.2236E-27  0.1731E-03  0.2520E-10  0.3978E-12  0.6005E-26  0.2500E-02  0.0000E+00  0.0000E+00  0.0000E+00  0.0000E+00  0.0000E+00  0.0000E+00  0.0000E+00  0.0000E+00  0.0000E+00  0.0000E+00
     -2.934  0.0000E+00  0.0000E+00  0.0000E+00  0.0000E+00  0.0000E+00  0.0000E+00  0.0000E+00  0.0000E+00  0.0000E+00  0.0000E+00  0.0000E+00  0.0000E+00  0.0000E+00  0.0000E+00  0.0000E+00  0.0000E+00  0.0000E+00  0.0000E+00
     -1.974  0.5760E-15  0.5053E-16  0.4034E-16  0.3609E-17  0.3007E-01  0.3018E-01  0.6353E-17  0.3073E-17  0.0000E+00  0.0000E+00  0.0000E+00  0.0000E+00  0.0000E+00  0.0000E+00  0.0000E+00  0.0000E+00  0.0000E+00  0.0000E+00
     -1.013  0.0000E+00  0.0000E+00  0.0000E+00  0.0000E+00  0.0000E+00  0.0000E+00  0.0000E+00  0.0000E+00  0.0000E+00  0.0000E+00  0.0000E+00  0.0000E+00  0.0000E+00  0.0000E+00  0.0000E+00  0.0000E+00  0.0000E+00  0.0000E+00
     -0.053  0.9917E-03  0.9943E-03  0.2656E-03  0.2627E-03  0.1445E-01  0.1373E-01  0.2800E-03  0.2796E-03  0.0000E+00  0.0000E+00  0.0000E+00  0.0000E+00  0.0000E+00  0.0000E+00  0.0000E+00  0.0000E+00  0.0000E+00  0.0000E+00
      0.907  0.8241E-04  0.6681E-04  0.5500E-04  0.5495E-04  0.1971E-03  0.2235E-03  0.2336E-04  0.2242E-04  0.0000E+00  0.0000E+00  0.0000E+00  0.0000E+00  0.0000E+00  0.0000E+00  0.0000E+00  0.0000E+00  0.0000E+00  0.0000E+00
      1.867  0.0000E+00  0.0000E+00  0.0000E+00  0.0000E+00  0.0000E+00  0.0000E+00  0.0000E+00  0.0000E+00  0.0000E+00  0.0000E+00  0.0000E+00  0.0000E+00  0.0000E+00  0.0000E+00  0.0000E+00  0.0000E+00  0.0000E+00  0.0000E+00
      1.86714482    -26.93811290   31     -4.37399435      1.00000000
    -26.938  0.0000E+00  0.0000E+00  0.0000E+00  0.0000E+00  0.0000E+00  0.0000E+00  0.0000E+00  0.0000E+00  0.0000E+00  0.0000E+00  0.0000E+00  0.0000E+00  0.0000E+00  0.0000E+00  0.0000E+00  0.0000E+00  0.0000E+00  0.0000E+00
    -25.978  0.0000E+00  0.0000E+00  0.0000E+00  0.0000E+00  0.0000E+00  0.0000E+00  0.0000E+00  0.0000E+00  0.0000E+00  0.0000E+00  0.0000E+00  0.0000E+00  0.0000E+00  0.0000E+00  0.0000E+00  0.0000E+00  0.0000E+00  0.0000E+00
    -25.018  0.5699E-03  0.5892E-03  0.5635E-04  0.5801E-04  0.1878E-20  0.2136E-20  0.9516E-04  0.9747E-04  0.0000E+00  0.0000E+00  0.0000E+00  0.0000E+00  0.0000E+00  0.0000E+00  0.0000E+00  0.0000E+00  0.0000E+00  0.0000E+00
    -24.058  0.5091E-06  0.6852E-03  0.2068E-08  0.8371E-04  0.1055E-24  0.8973E-20  0.1542E-06  0.7554E-04  0.0000E+00  0.0000E+00  0.0000E+00  0.0000E+00  0.0000E+00  0.0000E+00  0.0000E+00  0.0000E+00  0.0000E+00  0.0000E+00
    -23.097  0.4173E-12  0.6094E-14  0.5829E-13  0.8503E-15  0.2660E-30  0.1045E-32  0.2615E-13  0.3600E-15  0.0000E+00  0.0000E+00  0.0000E+00  0.0000E+00  0.0000E+00  0.0000E+00  0.0000E+00  0.0000E+00  0.0000E+00  0.0000E+00
    -22.137  0.6019E-04  0.1431E-04  0.1077E-04  0.2461E-05  0.3110E-24  0.2841E-23  0.7369E-07  0.2060E-07  0.0000E+00  0.0000E+00  0.0000E+00  0.0000E+00  0.0000E+00  0.0000E+00  0.0000E+00  0.0000E+00  0.0000E+00  0.0000E+00
    -21.177  0.9266E-01  0.9245E-01  0.1030E-01  0.1025E-01  0.2311E-19  0.2449E-18  0.7325E-05  0.6264E-05  0.0000E+00  0.0000E+00  0.0000E+00  0.0000E+00  0.0000E+00  0.0000E+00  0.0000E+00  0.0000E+00  0.0000E+00  0.0000E+00
    -20.217  0.0000E+00  0.0000E+00  0.0000E+00  0.0000E+00  0.0000E+00  0.0000E+00  0.0000E+00  0.0000E+00  0.0000E+00  0.0000E+00  0.0000E+00  0.0000E+00  0.0000E+00  0.0000E+00  0.0000E+00  0.0000E+00  0.0000E+00  0.0000E+00
    -19.257  0.2166E-01  0.2186E-01  0.2920E-03  0.2942E-03  0.3737E-20  0.4612E-20  0.4117E-03  0.4082E-03  0.0000E+00  0.0000E+00  0.0000E+00  0.0000E+00  0.0000E+00  0.0000E+00  0.0000E+00  0.0000E+00  0.0000E+00  0.0000E+00
    -18.297  0.0000E+00  0.0000E+00  0.0000E+00  0.0000E+00  0.0000E+00  0.0000E+00  0.0000E+00  0.0000E+00  0.0000E+00  0.0000E+00  0.0000E+00  0.0000E+00  0.0000E+00  0.0000E+00  0.0000E+00  0.0000E+00  0.0000E+00  0.0000E+00
    -17.336  0.1709E-01  0.1653E-01  0.4904E-03  0.4778E-03  0.2264E-21  0.2721E-20  0.3351E-02  0.3292E-02  0.0000E+00  0.0000E+00  0.0000E+00  0.0000E+00  0.0000E+00  0.0000E+00  0.0000E+00  0.0000E+00  0.0000E+00  0.0000E+00
    -16.376  0.7072E-11  0.7813E-12  0.2377E-11  0.2927E-12  0.2092E-29  0.6984E-30  0.2104E-11  0.2324E-12  0.0000E+00  0.0000E+00  0.0000E+00  0.0000E+00  0.0000E+00  0.0000E+00  0.0000E+00  0.0000E+00  0.0000E+00  0.0000E+00
    -15.416  0.6242E-01  0.6330E-01  0.5882E-03  0.6068E-03  0.6045E-19  0.5727E-19  0.1856E-01  0.1864E-01  0.0000E+00  0.0000E+00  0.0000E+00  0.0000E+00  0.0000E+00  0.0000E+00  0.0000E+00  0.0000E+00  0.0000E+00  0.0000E+00
    -14.456  0.5013E-03  0.5357E-03  0.5879E-05  0.6201E-05  0.3431E-19  0.3594E-19  0.1934E-01  0.1942E-01  0.0000E+00  0.0000E+00  0.0000E+00  0.0000E+00  0.0000E+00  0.0000E+00  0.0000E+00  0.0000E+00  0.0000E+00  0.0000E+00
    -13.496  0.4927E-02  0.1315E-01  0.1399E-01  0.2629E-01  0.4787E-19  0.5026E-19  0.2064E-02  0.2181E-02  0.0000E+00  0.0000E+00  0.0000E+00  0.0000E+00  0.0000E+00  0.0000E+00  0.0000E+00  0.0000E+00  0.0000E+00  0.0000E+00
    -12.535  0.1151E-02  0.1103E-02  0.5035E-04  0.5082E-04  0.2724E-18  0.3053E-18  0.1495E-02  0.1358E-02  0.0000E+00  0.0000E+00  0.0000E+00  0.0000E+00  0.0000E+00  0.0000E+00  0.0000E+00  0.0000E+00  0.0000E+00  0.0000E+00
    -11.575  0.1425E-01  0.1409E-01  0.1187E-01  0.1053E-01  0.3007E-02  0.2776E-02  0.7208E-01  0.7525E-01  0.0000E+00  0.0000E+00  0.0000E+00  0.0000E+00  0.0000E+00  0.0000E+00  0.0000E+00  0.0000E+00  0.0000E+00  0.0000E+00
    -10.615  0.1538E-02  0.1517E-02  0.1047E+00  0.1057E+00  0.4860E-02  0.5052E-02  0.1875E-01  0.1150E-01  0.0000E+00  0.0000E+00  0.0000E+00  0.0000E+00  0.0000E+00  0.0000E+00  0.0000E+00  0.0000E+00  0.0000E+00  0.0000E+00
     -9.655  0.1834E-04  0.4672E-08  0.1225E-02  0.2149E-05  0.7248E-03  0.7238E-03  0.6201E-03  0.1609E-05  0.0000E+00  0.0000E+00  0.0000E+00  0.0000E+00  0.0000E+00  0.0000E+00  0.0000E+00  0.0000E+00  0.0000E+00  0.0000E+00
     -8.695  0.3591E-02  0.3540E-02  0.1032E-01  0.1205E-01  0.1450E-01  0.1411E-01  0.9844E-01  0.9761E-01  0.0000E+00  0.0000E+00  0.0000E+00  0.0000E+00  0.0000E+00  0.0000E+00  0.0000E+00  0.0000E+00  0.0000E+00  0.0000E+00
     -7.735  0.1643E-11  0.9958E-05  0.8615E-12  0.6495E-04  0.6611E-02  0.1037E-07  0.3299E-11  0.1437E-03  0.0000E+00  0.0000E+00  0.0000E+00  0.0000E+00  0.0000E+00  0.0000E+00  0.0000E+00  0.0000E+00  0.0000E+00  0.0000E+00
     -6.774  0.1921E-04  0.1338E-04  0.1535E-03  0.6950E-04  0.2525E-01  0.2510E-01  0.1641E-03  0.1474E-03  0.0000E+00  0.0000E+00  0.0000E+00  0.0000E+00  0.0000E+00  0.0000E+00  0.0000E+00  0.0000E+00  0.0000E+00  0.0000E+00
     -5.814  0.0000E+00  0.0000E+00  0.0000E+00  0.0000E+00  0.0000E+00  0.0000E+00  0.0000E+00  0.0000E+00  0.0000E+00  0.0000E+00  0.0000E+00  0.0000E+00  0.0000E+00  0.0000E+00  0.0000E+00  0.0000E+00  0.0000E+00  0.0000E+00
     -4.854  0.7703E-07  0.1613E-19  0.1993E-07  0.4846E-19  0.1357E-01  0.1356E-01  0.2499E-06  0.2747E-20  0.0000E+00  0.0000E+00  0.0000E+00  0.0000E+00  0.0000E+00  0.0000E+00  0.0000E+00  0.0000E+00  0.0000E+00  0.0000E+00
     -3.894  0.4865E-27  0.1704E-03  0.2589E-27  0.6026E-04  0.1118E-10  0.1691E-12  0.1430E-26  0.4643E-03  0.0000E+00  0.0000E+00  0.0000E+00  0.0000E+00  0.0000E+00  0.0000E+00  0.0000E+00  0.0000E+00  0.0000E+00  0.0000E+00
     -2.934  0.0000E+00  0.0000E+00  0.0000E+00  0.0000E+00  0.0000E+00  0.0000E+00  0.0000E+00  0.0000E+00  0.0000E+00  0.0000E+00  0.0000E+00  0.0000E+00  0.0000E+00  0.0000E+00  0.0000E+00  0.0000E+00  0.0000E+00  0.0000E+00
     -1.974  0.5625E-16  0.6431E-16  0.2895E-15  0.1481E-15  0.6035E-01  0.6006E-01  0.4853E-16  0.2456E-17  0.0000E+00  0.0000E+00  0.0000E+00  0.0000E+00  0.0000E+00  0.0000E+00  0.0000E+00  0.0000E+00  0.0000E+00  0.0000E+00
     -1.013  0.0000E+00  0.0000E+00  0.0000E+00  0.0000E+00  0.0000E+00  0.0000E+00  0.0000E+00  0.0000E+00  0.0000E+00  0.0000E+00  0.0000E+00  0.0000E+00  0.0000E+00  0.0000E+00  0.0000E+00  0.0000E+00  0.0000E+00  0.0000E+00
     -0.053  0.3872E-02  0.3848E-02  0.5266E-02  0.5235E-02  0.1060E-01  0.1002E-01  0.3403E-04  0.3480E-04  0.0000E+00  0.0000E+00  0.0000E+00  0.0000E+00  0.0000E+00  0.0000E+00  0.0000E+00  0.0000E+00  0.0000E+00  0.0000E+00
      0.907  0.5819E-03  0.6111E-03  0.5952E-03  0.5782E-03  0.1083E-02  0.1106E-02  0.5816E-05  0.4522E-05  0.0000E+00  0.0000E+00  0.0000E+00  0.0000E+00  0.0000E+00  0.0000E+00  0.0000E+00  0.0000E+00  0.0000E+00  0.0000E+00
      1.867  0.0000E+00  0.0000E+00  0.0000E+00  0.0000E+00  0.0000E+00  0.0000E+00  0.0000E+00  0.0000E+00  0.0000E+00  0.0000E+00  0.0000E+00  0.0000E+00  0.0000E+00  0.0000E+00  0.0000E+00  0.0000E+00  0.0000E+00  0.0000E+00
      1.86714482    -26.93811290   31     -4.37399435      1.00000000
    -26.938  0.0000E+00  0.0000E+00  0.0000E+00  0.0000E+00  0.0000E+00  0.0000E+00  0.0000E+00  0.0000E+00  0.0000E+00  0.0000E+00  0.0000E+00  0.0000E+00  0.0000E+00  0.0000E+00  0.0000E+00  0.0000E+00  0.0000E+00  0.0000E+00
    -25.978  0.0000E+00  0.0000E+00  0.0000E+00  0.0000E+00  0.0000E+00  0.0000E+00  0.0000E+00  0.0000E+00  0.0000E+00  0.0000E+00  0.0000E+00  0.0000E+00  0.0000E+00  0.0000E+00  0.0000E+00  0.0000E+00  0.0000E+00  0.0000E+00
    -25.018  0.9529E-04  0.9963E-04  0.1537E-05  0.1608E-05  0.1592E-20  0.3011E-21  0.2436E-04  0.2527E-04  0.0000E+00  0.0000E+00  0.0000E+00  0.0000E+00  0.0000E+00  0.0000E+00  0.0000E+00  0.0000E+00  0.0000E+00  0.0000E+00
    -24.058  0.1166E-07  0.1705E-03  0.2497E-08  0.2963E-05  0.4583E-26  0.5808E-20  0.5141E-08  0.3702E-04  0.0000E+00  0.0000E+00  0.0000E+00  0.0000E+00  0.0000E+00  0.0000E+00  0.0000E+00  0.0000E+00  0.0000E+00  0.0000E+00
    -23.097  0.1910E-12  0.2841E-14  0.4638E-14  0.6798E-16  0.1158E-30  0.1371E-33  0.2853E-13  0.4200E-15  0.0000E+00  0.0000E+00  0.0000E+00  0.0000E+00  0.0000E+00  0.0000E+00  0.0000E+00  0.0000E+00  0.0000E+00  0.0000E+00
    -22.137  0.5190E-04  0.1225E-04  0.1227E-05  0.2869E-06  0.1030E-23  0.4617E-23  0.5611E-05  0.1309E-05  0.0000E+00  0.0000E+00  0.0000E+00  0.0000E+00  0.0000E+00  0.0000E+00  0.0000E+00  0.0000E+00  0.0000E+00  0.0000E+00
    -21.177  0.9205E-01  0.9273E-01  0.2052E-02  0.2073E-02  0.8018E-20  0.1975E-18  0.7328E-02  0.7316E-02  0.0000E+00  0.0000E+00  0.0000E+00  0.0000E+00  0.0000E+00  0.0000E+00  0.0000E+00  0.0000E+00  0.0000E+00  0.0000E+00
    -20.217  0.0000E+00  0.0000E+00  0.0000E+00  0.0000E+00  0.0000E+00  0.0000E+00  0.0000E+00  0.0000E+00  0.0000E+00  0.0000E+00  0.0000E+00  0.0000E+00  0.0000E+00  0.0000E+00  0.0000E+00  0.0000E+00  0.0000E+00  0.0000E+00
    -19.257  0.3564E-02  0.3611E-02  0.9403E-03  0.9532E-03  0.4365E-20  0.3112E-20  0.7551E-03  0.7634E-03  0.0000E+00  0.0000E+00  0.0000E+00  0.0000E+00  0.0000E+00  0.0000E+00  0.0000E+00  0.0000E+00  0.0000E+00  0.0000E+00
    -18.297  0.0000E+00  0.0000E+00  0.0000E+00  0.0000E+00  0.0000E+00  0.0000E+00  0.0000E+00  0.0000E+00  0.0000E+00  0.0000E+00  0.0000E+00  0.0000E+00  0.0000E+00  0.0000E+00  0.0000E+00  0.0000E+00  0.0000E+00  0.0000E+00
    -17.336  0.1581E-01  0.1535E-01  0.3634E-02  0.3546E-02  0.2760E-19  0.1602E-19  0.1395E-02  0.1355E-02  0.0000E+00  0.0000E+00  0.0000E+00  0.0000E+00  0.0000E+00  0.0000E+00  0.0000E+00  0.0000E+00  0.0000E+00  0.0000E+00
    -16.376  0.1945E-10  0.2230E-11  0.2807E-11  0.3157E-12  0.3612E-28  0.1017E-28  0.6477E-11  0.7568E-12  0.0000E+00  0.0000E+00  0.0000E+00  0.0000E+00  0.0000E+00  0.0000E+00  0.0000E+00  0.0000E+00  0.0000E+00  0.0000E+00
    -15.416  0.4923E-01  0.4926E-01  0.2195E-01  0.2238E-01  0.1388E-18  0.2527E-18  0.1627E-01  0.1655E-01  0.0000E+00  0.0000E+00  0.0000E+00  0.0000E+00  0.0000E+00  0.0000E+00  0.0000E+00  0.0000E+00  0.0000E+00  0.0000E+00
    -14.456  0.1803E-01  0.1808E-01  0.5743E-02  0.5759E-02  0.1327E-19  0.1618E-19  0.2997E-04  0.3368E-04  0.0000E+00  0.0000E+00  0.0000E+00  0.0000E+00  0.0000E+00  0.0000E+00  0.0000E+00  0.0000E+00  0.0000E+00  0.0000E+00
    -13.496  0.1314E-02  0.6044E-03  0.6812E-02  0.1449E-01  0.1296E-19  0.7214E-19  0.2658E-02  0.3097E-02  0.0000E+00  0.0000E+00  0.0000E+00  0.0000E+00  0.0000E+00  0.0000E+00  0.0000E+00  0.0000E+00  0.0000E+00  0.0000E+00
    -12.535  0.1739E-02  0.1608E-02  0.5697E-03  0.5273E-03  0.3747E-19  0.3722E-19  0.4272E-03  0.4225E-03  0.0000E+00  0.0000E+00  0.0000E+00  0.0000E+00  0.0000E+00  0.0000E+00  0.0000E+00  0.0000E+00  0.0000E+00  0.0000E+00
    -11.575  0.1358E-01  0.1350E-01  0.2260E-01  0.2473E-01  0.9214E-03  0.8614E-03  0.9417E-01  0.8985E-01  0.0000E+00  0.0000E+00  0.0000E+00  0.0000E+00  0.0000E+00  0.0000E+00  0.0000E+00  0.0000E+00  0.0000E+00  0.0000E+00
    -10.615  0.7246E-02  0.7374E-02  0.4481E-01  0.4410E-01  0.2207E-02  0.2326E-02  0.9918E-02  0.9956E-02  0.0000E+00  0.0000E+00  0.0000E+00  0.0000E+00  0.0000E+00  0.0000E+00  0.0000E+00  0.0000E+00  0.0000E+00  0.0000E+00
     -9.655  0.7595E-03  0.7247E-06  0.1323E-01  0.9524E-05  0.5800E-04  0.5793E-04  0.7570E-02  0.6097E-05  0.0000E+00  0.0000E+00  0.0000E+00  0.0000E+00  0.0000E+00  0.0000E+00  0.0000E+00  0.0000E+00  0.0000E+00  0.0000E+00
     -8.695  0.1338E-02  0.1134E-02  0.1277E-01  0.1415E-01  0.2221E-01  0.2230E-01  0.1155E+00  0.1137E+00  0.0000E+00  0.0000E+00  0.0000E+00  0.0000E+00  0.0000E+00  0.0000E+00  0.0000E+00  0.0000E+00  0.0000E+00  0.0000E+00
     -7.735  0.3784E-13  0.1287E-04  0.8924E-13  0.2827E-05  0.1918E-01  0.3882E-07  0.2087E-12  0.1421E-03  0.0000E+00  0.0000E+00  0.0000E+00  0.0000E+00  0.0000E+00  0.0000E+00  0.0000E+00  0.0000E+00  0.0000E+00  0.0000E+00
     -6.774  0.2775E-04  0.2936E-04  0.3422E-05  0.2028E-05  0.1378E-01  0.1436E-01  0.9094E-04  0.9745E-04  0.0000E+00  0.0000E+00  0.0000E+00  0.0000E+00  0.0000E+00  0.0000E+00  0.0000E+00  0.0000E+00  0.0000E+00  0.0000E+00
     -5.814  0.0000E+00  0.0000E+00  0.0000E+00  0.0000E+00  0.0000E+00  0.0000E+00  0.0000E+00  0.0000E+00  0.0000E+00  0.0000E+00  0.0000E+00  0.0000E+00  0.0000E+00  0.0000E+00  0.0000E+00  0.0000E+00  0.0000E+00  0.0000E+00
     -4.854  0.6003E-07  0.3531E-19  0.7876E-08  0.7558E-19  0.8238E-02  0.8231E-02  0.1020E-06  0.2708E-19  0.0000E+00  0.0000E+00  0.0000E+00  0.0000E+00  0.0000E+00  0.0000E+00  0.0000E+00  0.0000E+00  0.0000E+00  0.0000E+00
     -3.894  0.2655E-27  0.1182E-03  0.2555E-27  0.1353E-04  0.1900E-10  0.2953E-12  0.2798E-27  0.1546E-03  0.0000E+00  0.0000E+00  0.0000E+00  0.0000E+00  0.0000E+00  0.0000E+00  0.0000E+00  0.0000E+00  0.0000E+00  0.0000E+00
     -2.934  0.0000E+00  0.0000E+00  0.0000E+00  0.0000E+00  0.0000E+00  0.0000E+00  0.0000E+00  0.0000E+00  0.0000E+00  0.0000E+00  0.0000E+00  0.0000E+00  0.0000E+00  0.0000E+00  0.0000E+00  0.0000E+00  0.0000E+00  0.0000E+00
     -1.974  0.2050E-15  0.7729E-16  0.1175E-18  0.1471E-16  0.3496E-01  0.3470E-01  0.8289E-16  0.5705E-17  0.0000E+00  0.0000E+00  0.0000E+00  0.0000E+00  0.0000E+00  0.0000E+00  0.0000E+00  0.0000E+00  0.0000E+00  0.0000E+00
     -1.013  0.0000E+00  0.0000E+00  0.0000E+00  0.0000E+00  0.0000E+00  0.0000E+00  0.0000E+00  0.0000E+00  0.0000E+00  0.0000E+00  0.0000E+00  0.0000E+00  0.0000E+00  0.0000E+00  0.0000E+00  0.0000E+00  0.0000E+00  0.0000E+00