 vasp.5.4.1 24Jun15 (build Aug 08 2016 09:57:19) complex                        
  
 executed on           IFC91_ompi date 2016.12.09  21:58:02
 running on  216 total cores
 distrk:  each k-point on  216 cores,    1 groups
 distr:  one band on NCORES_PER_BAND=   8 cores,   27 groups


--------------------------------------------------------------------------------------------------------


 INCAR:
 POTCAR:    PAW_PBE Cu 22Jun2005                  

 ----------------------------------------------------------------------------- 
|                                                                             |
|  ADVICE TO THIS USER RUNNING 'VASP/VAMP'   (HEAR YOUR MASTER'S VOICE ...):  |
|                                                                             |
|      You have switched on vdW-DFT.                                          |
|      This routine was written and supplied by Jiri Klimes.                  |
|      We recommed that you carefully read and cite the following             |
|      publication                                                            |
|      J. Klimes, D.R. Bowler, A. Michelides                                  |
|        J. Phys.: Cond Matt. 22 022201 (2010)                                |
|      J. Klimes, D.R. Bowler, A. Michelides                                  |
|        Phys. Rev. B. 83, 195131 (2011)                                      |
|      and references therein.                                                |
|                                                                             |
 ----------------------------------------------------------------------------- 

 POTCAR:    PAW_PBE Cu 22Jun2005                  
   VRHFIN =Cu: d10 p1                                                           
   LEXCH  = PE                                                                  
   EATOM  =  1390.9808 eV,  102.2342 Ry                                         
                                                                                
   TITEL  = PAW_PBE Cu 22Jun2005                                                
   LULTRA =        F    use ultrasoft PP ?                                      
   IUNSCR =        1    unscreen: 0-lin 1-nonlin 2-no                           
   RPACOR =    2.000    partial core radius                                     
   POMASS =   63.546; ZVAL   =   11.000    mass and valenz                      
   RCORE  =    2.300    outmost cutoff radius                                   
   RWIGS  =    2.200; RWIGS  =    1.164    wigner-seitz radius (au A)           
   ENMAX  =  295.446; ENMIN  =  221.585 eV                                      
   ICORE  =        3    local potential                                         
   LCOR   =        T    correct aug charges                                     
   LPAW   =        T    paw PP                                                  
   EAUG   =  586.980                                                            
   DEXC   =    0.000                                                            
   RMAX   =    2.344    core radius for proj-oper                               
   RAUG   =    1.300    factor for augmentation sphere                          
   RDEP   =    2.302    radius for radial grids                                 
   RDEPT  =    1.771    core radius for aug-charge                              
                                                                                
   Atomic configuration                                                         
    9 entries                                                                   
     n  l   j            E        occ.                                          
     1  0  0.50     -8850.2468   2.0000                                         
     2  0  0.50     -1062.3498   2.0000                                         
     2  1  1.50      -916.8226   6.0000                                         
     3  0  0.50      -114.6929   2.0000                                         
     3  1  1.50       -72.1325   6.0000                                         
     3  2  2.50        -5.0394  10.0000                                         
     4  0  0.50        -4.6097   1.0000                                         
     4  1  0.50        -4.0817   0.0000                                         
     4  3  2.50        -1.3606   0.0000                                         
   Description                                                                  
     l       E           TYP  RCUT    TYP  RCUT                                 
     2     -5.0393973     23  2.200                                             
     2     10.8846608     23  2.200                                             
     0     -4.6097109     23  2.200                                             
     0      8.2520465     23  2.200                                             
     1     -2.7211652     23  2.200                                             
     1     21.7055443     23  2.200                                             
     3      2.7211652     23  2.300                                             
  local pseudopotential read in
  partial core-charges read in
  partial kinetic energy density read in
  atomic valenz-charges read in
  non local Contribution for L=           2  read in
    real space projection operators read in
  non local Contribution for L=           2  read in
    real space projection operators read in
  non local Contribution for L=           0  read in
    real space projection operators read in
  non local Contribution for L=           0  read in
    real space projection operators read in
  non local Contribution for L=           1  read in
    real space projection operators read in
  non local Contribution for L=           1  read in
    real space projection operators read in
    PAW grid and wavefunctions read in
 
   number of l-projection  operators is LMAX  =           6
   number of lm-projection operators is LMMAX =          18
 

 ----------------------------------------------------------------------------- 
|                                                                             |
|  ADVICE TO THIS USER RUNNING 'VASP/VAMP'   (HEAR YOUR MASTER'S VOICE ...):  |
|                                                                             |
|      You enforced a specific xc-type in the INCAR file,                     |
|      a different type was found on the POTCAR file                          |
|          I HOPE YOU KNOW, WHAT YOU ARE  DOING                               |
|                                                                             |
 ----------------------------------------------------------------------------- 

  PAW_PBE Cu 22Jun2005                  :
 energy of atom  1       EATOM=-1390.9808
 kinetic energy error for atom=    0.0232 (will be added to EATOM!!)
 
 
 POSCAR: Cu                                      
  positions in direct lattice
  velocities in cartesian coordinates
 exchange correlation table for  LEXCH =       43
   RHO(1)=    0.500       N(1)  =     2000
   RHO(2)=  100.500       N(2)  =     4000
 


--------------------------------------------------------------------------------------------------------


 ion  position               nearest neighbor table
   1  0.000  0.000  0.012-   2 2.57   2 2.57   2 2.57
   2  0.333  0.333  0.061-   3 2.57   3 2.57   3 2.57   1 2.57   1 2.57   1 2.57
   3  0.667  0.667  0.110-   2 2.57   2 2.57   2 2.57   4 2.57   4 2.57   4 2.57
   4  0.000  0.000  0.159-   3 2.57   3 2.57   3 2.57   5 2.58   5 2.58   5 2.58
   5  0.333  0.333  0.209-   6 2.55   6 2.55   6 2.55   4 2.58   4 2.58   4 2.58
   6  0.667  0.667  0.258-   7 2.49   7 2.49   7 2.49   5 2.55   5 2.55   5 2.55
   7  0.000  0.000  0.305-   6 2.49   6 2.49   6 2.49
 
  LATTYP: Found a hexagonal cell.
 ALAT       =     2.5682118293
 C/A-ratio  =    16.5802589105
  
  Lattice vectors:
  
 A1 = (   1.2841059146,  -2.2241366864,   0.0000000000)
 A2 = (  -2.5682118293,   0.0000000000,   0.0000000000)
 A3 = (   0.0000000000,   0.0000000000, -42.5816170662)


Analysis of symmetry for initial positions (statically):
=====================================================================
 Subroutine PRICEL returns:
 Original cell was already a primitive cell.
 

 Routine SETGRP: Setting up the symmetry group for a 
 hexagonal supercell.


 Subroutine GETGRP returns: Found  6 space group operations
 (whereof  6 operations were pure point group operations)
 out of a pool of 24 trial point group operations.


The static configuration has the point symmetry C_3v.


Analysis of symmetry for dynamics (positions and initial velocities):
=====================================================================
 Subroutine PRICEL returns:
 Original cell was already a primitive cell.
 

 Routine SETGRP: Setting up the symmetry group for a 
 hexagonal supercell.


 Subroutine GETGRP returns: Found  6 space group operations
 (whereof  6 operations were pure point group operations)
 out of a pool of 24 trial point group operations.


The dynamic configuration has the point symmetry C_3v.


Analysis of constrained symmetry for selective dynamics:
=====================================================================
 Subroutine PRICEL returns:
 Original cell was already a primitive cell.
 

 Routine SETGRP: Setting up the symmetry group for a 
 hexagonal supercell.


 Subroutine GETGRP returns: Found  6 space group operations
 (whereof  6 operations were pure point group operations)
 out of a pool of 24 trial point group operations.


The constrained configuration has the point symmetry C_3v.


 Subroutine INISYM returns: Found  6 space group operations
 (whereof  6 operations are pure point group operations),
 and found     1 'primitive' translations

 
 
 KPOINTS: Cu111                                   

Automatic generation of k-mesh.
Space group operators:
 irot       det(A)        alpha          n_x          n_y          n_z        tau_x        tau_y        tau_z
    1     1.000000     0.000001     1.000000     0.000000     0.000000     0.000000     0.000000     0.000000
    2     1.000000   120.000000     0.000000     0.000000     1.000000     0.000000     0.000000     0.000000
    3     1.000000   120.000000     0.000000     0.000000    -1.000000     0.000000     0.000000     0.000000
    4    -1.000000   179.999999     0.500000    -0.866025     0.000000     0.000000     0.000000     0.000000
    5    -1.000000   179.999999     1.000000    -0.000000     0.000000     0.000000     0.000000     0.000000
    6    -1.000000   179.999999    -0.500000    -0.866025     0.000000     0.000000     0.000000     0.000000
 
 Subroutine IBZKPT returns following result:
 ===========================================
 
 Found     33 irreducible k-points:
 
 Following reciprocal coordinates:
            Coordinates               Weight
  0.000000  0.000000  0.000000      1.000000
  0.058824  0.000000  0.000000      6.000000
  0.117647  0.000000  0.000000      6.000000
  0.176471 -0.000000  0.000000      6.000000
  0.235294  0.000000  0.000000      6.000000
  0.294118  0.000000  0.000000      6.000000
  0.352941 -0.000000  0.000000      6.000000
  0.411765  0.000000  0.000000      6.000000
  0.470588  0.000000  0.000000      6.000000
  0.117647  0.058824  0.000000      6.000000
  0.176471  0.058824  0.000000     12.000000
  0.235294  0.058824  0.000000     12.000000
  0.294118  0.058824  0.000000     12.000000
  0.352941  0.058824  0.000000     12.000000
  0.411765  0.058824  0.000000     12.000000
  0.470588  0.058824  0.000000     12.000000
 -0.470588  0.058824  0.000000      6.000000
  0.235294  0.117647  0.000000      6.000000
  0.294118  0.117647  0.000000     12.000000
  0.352941  0.117647  0.000000     12.000000
  0.411765  0.117647  0.000000     12.000000
  0.470588  0.117647  0.000000     12.000000
 -0.470588  0.117647  0.000000     12.000000
  0.352941  0.176471  0.000000      6.000000
  0.411765  0.176471  0.000000     12.000000
  0.470588  0.176471  0.000000     12.000000
 -0.470588  0.176471  0.000000     12.000000
 -0.411765  0.176471  0.000000      6.000000
  0.470588  0.235294  0.000000      6.000000
 -0.470588  0.235294  0.000000     12.000000
 -0.411765  0.235294  0.000000     12.000000
 -0.411765  0.294118  0.000000      6.000000
 -0.352941  0.294118  0.000000      6.000000
 
 Following cartesian coordinates:
            Coordinates               Weight
  0.000000  0.000000  0.000000      1.000000
  0.022904 -0.013224  0.000000      6.000000
  0.045809 -0.026448  0.000000      6.000000
  0.068713 -0.039672  0.000000      6.000000
  0.091618 -0.052896  0.000000      6.000000
  0.114522 -0.066120  0.000000      6.000000
  0.137427 -0.079343  0.000000      6.000000
  0.160331 -0.092567  0.000000      6.000000
  0.183236 -0.105791  0.000000      6.000000
  0.045809  0.000000  0.000000      6.000000
  0.068713 -0.013224  0.000000     12.000000
  0.091618 -0.026448  0.000000     12.000000
  0.114522 -0.039672  0.000000     12.000000
  0.137427 -0.052896  0.000000     12.000000
  0.160331 -0.066120  0.000000     12.000000
  0.183236 -0.079343  0.000000     12.000000
 -0.183236  0.132239  0.000000      6.000000
  0.091618 -0.000000  0.000000      6.000000
  0.114522 -0.013224  0.000000     12.000000
  0.137427 -0.026448  0.000000     12.000000
  0.160331 -0.039672  0.000000     12.000000
  0.183236 -0.052896  0.000000     12.000000
 -0.183236  0.158687  0.000000     12.000000
  0.137427  0.000000  0.000000      6.000000
  0.160331 -0.013224  0.000000     12.000000
  0.183236 -0.026448  0.000000     12.000000
 -0.183236  0.185135  0.000000     12.000000
 -0.160331  0.171911  0.000000      6.000000
  0.183236  0.000000  0.000000      6.000000
 -0.183236  0.211582  0.000000     12.000000
 -0.160331  0.198359  0.000000     12.000000
 -0.160331  0.224806  0.000000      6.000000
 -0.137427  0.211582  0.000000      6.000000
 


--------------------------------------------------------------------------------------------------------




 Dimension of arrays:
   k-points           NKPTS =     33   k-points in BZ     NKDIM =     33   number of bands    NBANDS=     54
   number of dos      NEDOS =    301   number of ions     NIONS =      7
   non local maximal  LDIM  =      6   non local SUM 2l+1 LMDIM =     18
   total plane-waves  NPLWV =  90720
   max r-space proj   IRMAX =      1   max aug-charges    IRDMAX=  86619
   dimension x,y,z NGX =    18 NGY =   18 NGZ =  280
   dimension x,y,z NGXF=    36 NGYF=   36 NGZF=  560
   support grid    NGXF=    72 NGYF=   72 NGZF= 1120
   ions per type =               7
 NGX,Y,Z   is equivalent  to a cutoff of  11.65, 11.65, 10.93 a.u.
 NGXF,Y,Z  is equivalent  to a cutoff of  23.30, 23.30, 21.86 a.u.


 I would recommend the setting:
   dimension x,y,z NGX =    17 NGY =   17 NGZ =  278
 SYSTEM =  Cu111                                   
 POSCAR =  Cu                                      

 Startparameter for this run:
   NWRITE =      2    write-flag & timer
   PREC   = accura    normal or accurate (medium, high low for compatibility)
   ISTART =      0    job   : 0-new  1-cont  2-samecut
   ICHARG =      2    charge: 1-file 2-atom 10-const
   ISPIN  =      1    spin polarized calculation?
   LNONCOLLINEAR =      F non collinear calculations
   LSORBIT =      F    spin-orbit coupling
   INIWAV =      1    electr: 0-lowe 1-rand  2-diag
   LASPH  =      F    aspherical Exc in radial PAW
   METAGGA=      F    non-selfconsistent MetaGGA calc.

 Electronic Relaxation 1
   ENCUT  =  400.0 eV  29.40 Ry    5.42 a.u.   4.19  4.19 69.44*2*pi/ulx,y,z
   ENINI  =  400.0     initial cutoff
   ENAUG  =  587.0 eV  augmentation charge cutoff
   NELM   =    300;   NELMIN=  2; NELMDL= -5     # of ELM steps 
   EDIFF  = 0.5E-05   stopping-criterion for ELM
   LREAL  =      F    real-space projection
   NLSPLINE    = F    spline interpolate recip. space projectors
   LCOMPAT=      F    compatible to vasp.4.4
   GGA_COMPAT  = T    GGA compatible to vasp.4.4-vasp.4.6
   LMAXPAW     = -100 max onsite density
   LMAXMIX     =    2 max onsite mixed and CHGCAR
   VOSKOWN=      0    Vosko Wilk Nusair interpolation
   ROPT   =    0.00000
 Ionic relaxation
   EDIFFG = -.1E-01   stopping-criterion for IOM
   NSW    =    300    number of steps for IOM
   NBLOCK =      1;   KBLOCK =    300    inner block; outer block 
   IBRION =      1    ionic relax: 0-MD 1-quasi-New 2-CG
   NFREE  =      0    steps in history (QN), initial steepest desc. (CG)
   ISIF   =      2    stress and relaxation
   IWAVPR =     11    prediction:  0-non 1-charg 2-wave 3-comb
   ISYM   =      2    0-nonsym 1-usesym 2-fastsym
   LCORR  =      T    Harris-Foulkes like correction to forces

   POTIM  = 0.3000    time-step for ionic-motion
   TEIN   =    0.0    initial temperature
   TEBEG  =    0.0;   TEEND  =   0.0 temperature during run
   SMASS  =  -3.00    Nose mass-parameter (am)
   estimated Nose-frequenzy (Omega)   =  0.10E-29 period in steps =****** mass=  -0.151E-27a.u.
   SCALEE = 1.0000    scale energy and forces
   NPACO  =    256;   APACO  = 16.0  distance and # of slots for P.C.
   PSTRESS=    0.0 pullay stress

  Mass of Ions in am
   POMASS =  63.55
  Ionic Valenz
   ZVAL   =  11.00
  Atomic Wigner-Seitz radii
   RWIGS  =  -1.00
  virtual crystal weights 
   VCA    =   1.00
   NELECT =      77.0000    total number of electrons
   NUPDOWN=      -1.0000    fix difference up-down

 DOS related values:
   EMIN   =  10.00;   EMAX   =-10.00  energy-range for DOS
   EFERMI =   0.00
   ISMEAR =     1;   SIGMA  =   0.20  broadening in eV -4-tet -1-fermi 0-gaus

 Electronic relaxation 2 (details)
   IALGO  =     38    algorithm
   LDIAG  =      T    sub-space diagonalisation (order eigenvalues)
   LSUBROT=      F    optimize rotation matrix (better conditioning)
   TURBO    =      0    0=normal 1=particle mesh
   IRESTART =      0    0=no restart 2=restart with 2 vectors
   NREBOOT  =      0    no. of reboots
   NMIN     =      0    reboot dimension
   EREF     =   0.00    reference energy to select bands
   IMIX   =      4    mixing-type and parameters
     AMIX     =   0.00;   BMIX     =  0.00
     AMIX_MAG =   0.80;   BMIX_MAG =  0.00
     AMIN     =   0.00
     WC   =   100.;   INIMIX=   1;  MIXPRE=   1;  MAXMIX= -45

 Intra band minimization:
   WEIMIN = 0.0010     energy-eigenvalue tresh-hold
   EBREAK =  0.23E-07  absolut break condition
   DEPER  =   0.30     relativ break condition  

   TIME   =   0.40     timestep for ELM

  volume/ion in A,a.u.               =      34.75       234.48
  Fermi-wavevector in a.u.,A,eV,Ry     =   1.115750  2.108462 16.937868  1.244898
  Thomas-Fermi vector in A             =   2.252358
 
 Write flags
   LWAVE  =      T    write WAVECAR
   LCHARG =      T    write CHGCAR
   LVTOT  =      F    write LOCPOT, total local potential
   LVHAR  =      T    write LOCPOT, Hartree potential only
   LELF   =      F    write electronic localiz. function (ELF)
   LORBIT =     12    0 simple, 1 ext, 2 COOP (PROOUT)


 Dipole corrections
   LMONO  =      F    monopole corrections only (constant potential shift)
   LDIPOL =      F    correct potential (dipole corrections)
   IDIPOL =      0    1-x, 2-y, 3-z, 4-all directions 
   EPSILON=  1.0000000 bulk dielectric constant

 Exchange correlation treatment:
   GGA     =    MK    GGA type
   LEXCH   =    43    internal setting for exchange type
   VOSKOWN=      0    Vosko Wilk Nusair interpolation
   LHFCALC =     F    Hartree Fock is set to
   LHFONE  =     F    Hartree Fock one center treatment
   AEXX    =    0.0000 exact exchange contribution

 vdW DFT:
   LUSE_VDW   =     T    switch on vdW DFT
   Zab_VDW    =******    correlation parameter
   PARAM1     =0.1234
   PARAM2     =0.7114
   PARAM3     =0.0000

 Linear response parameters
   LEPSILON=     F    determine dielectric tensor
   LRPA    =     F    only Hartree local field effects (RPA)
   LNABLA  =     F    use nabla operator in PAW spheres
   LVEL    =     F    velocity operator in full k-point grid
   LINTERFAST=   F  fast interpolation
   KINTER  =     0    interpolate to denser k-point grid
   CSHIFT  =0.1000    complex shift for real part using Kramers Kronig
   OMEGAMAX=  -1.0    maximum frequency
   DEG_THRESHOLD= 0.2000000E-02 threshold for treating states as degnerate
   RTIME   =    0.100 relaxation time in fs

 Orbital magnetization related:
   ORBITALMAG=     F  switch on orbital magnetization
   LCHIMAG   =     F  perturbation theory with respect to B field
   DQ        =  0.001000  dq finite difference perturbation B field



--------------------------------------------------------------------------------------------------------


 quasi-Newton-method for relaxation of ions
   using selective dynamics as specified on POSCAR
 charge density and potential will be updated during run
 non-spin polarized calculation
 Variant of blocked Davidson
 Davidson routine will perform the subspace rotation
 perform sub-space diagonalisation
    after iterative eigenvector-optimisation
 modified Broyden-mixing scheme, WC =      100.0
 initial mixing is a Kerker type mixing with AMIX =  0.0010 and BMIX =      0.0000
 Hartree-type preconditioning will be used
 using additional bands           15
 reciprocal scheme for non local part
 use partial core corrections
 calculate Harris-corrections to forces 
   (improved forces if not selfconsistent)
 use gradient corrections 
 use of overlap-Matrix (Vanderbilt PP)
 Methfessel and Paxton  Order N= 1 SIGMA  =   0.20


--------------------------------------------------------------------------------------------------------


  energy-cutoff  :      400.00
  volume of cell :      243.23
      direct lattice vectors                 reciprocal lattice vectors
     2.568211829  0.000000000  0.000000000     0.389375981 -0.224806327  0.000000000
     1.284105915  2.224136686  0.000000000     0.000000000  0.449612655  0.000000000
     0.000000000  0.000000000 42.581617066     0.000000000  0.000000000  0.023484312

  length of vectors
     2.568211829  2.568211829 42.581617066     0.449612655  0.449612655  0.023484312


 
 k-points in units of 2pi/SCALE and weight: Cu111                                   
   0.00000000  0.00000000  0.00000000       0.003
   0.02290447 -0.01322390  0.00000000       0.021
   0.04580894 -0.02644780  0.00000000       0.021
   0.06871341 -0.03967170  0.00000000       0.021
   0.09161788 -0.05289561  0.00000000       0.021
   0.11452235 -0.06611951  0.00000000       0.021
   0.13742682 -0.07934341  0.00000000       0.021
   0.16033129 -0.09256731  0.00000000       0.021
   0.18323576 -0.10579121  0.00000000       0.021
   0.04580894  0.00000000  0.00000000       0.021
   0.06871341 -0.01322390  0.00000000       0.042
   0.09161788 -0.02644780  0.00000000       0.042
   0.11452235 -0.03967170  0.00000000       0.042
   0.13742682 -0.05289561  0.00000000       0.042
   0.16033129 -0.06611951  0.00000000       0.042
   0.18323576 -0.07934341  0.00000000       0.042
  -0.18323576  0.13223902  0.00000000       0.021
   0.09161788 -0.00000000  0.00000000       0.021
   0.11452235 -0.01322390  0.00000000       0.042
   0.13742682 -0.02644780  0.00000000       0.042
   0.16033129 -0.03967170  0.00000000       0.042
   0.18323576 -0.05289561  0.00000000       0.042
  -0.18323576  0.15868682  0.00000000       0.042
   0.13742682  0.00000000  0.00000000       0.021
   0.16033129 -0.01322390  0.00000000       0.042
   0.18323576 -0.02644780  0.00000000       0.042
  -0.18323576  0.18513462  0.00000000       0.042
  -0.16033129  0.17191072  0.00000000       0.021
   0.18323576  0.00000000  0.00000000       0.021
  -0.18323576  0.21158243  0.00000000       0.042
  -0.16033129  0.19835852  0.00000000       0.042
  -0.16033129  0.22480633  0.00000000       0.021
  -0.13742682  0.21158243  0.00000000       0.021
 
 k-points in reciprocal lattice and weights: Cu111                                   
   0.00000000  0.00000000  0.00000000       0.003
   0.05882353  0.00000000  0.00000000       0.021
   0.11764706  0.00000000  0.00000000       0.021
   0.17647059 -0.00000000  0.00000000       0.021
   0.23529412  0.00000000  0.00000000       0.021
   0.29411765  0.00000000  0.00000000       0.021
   0.35294118 -0.00000000  0.00000000       0.021
   0.41176471  0.00000000  0.00000000       0.021
   0.47058824  0.00000000  0.00000000       0.021
   0.11764706  0.05882353  0.00000000       0.021
   0.17647059  0.05882353  0.00000000       0.042
   0.23529412  0.05882353  0.00000000       0.042
   0.29411765  0.05882353  0.00000000       0.042
   0.35294118  0.05882353  0.00000000       0.042
   0.41176471  0.05882353  0.00000000       0.042
   0.47058824  0.05882353  0.00000000       0.042
  -0.47058824  0.05882353  0.00000000       0.021
   0.23529412  0.11764706  0.00000000       0.021
   0.29411765  0.11764706  0.00000000       0.042
   0.35294118  0.11764706  0.00000000       0.042
   0.41176471  0.11764706  0.00000000       0.042
   0.47058824  0.11764706  0.00000000       0.042
  -0.47058824  0.11764706  0.00000000       0.042
   0.35294118  0.17647059  0.00000000       0.021
   0.41176471  0.17647059  0.00000000       0.042
   0.47058824  0.17647059  0.00000000       0.042
  -0.47058824  0.17647059  0.00000000       0.042
  -0.41176471  0.17647059  0.00000000       0.021
   0.47058824  0.23529412  0.00000000       0.021
  -0.47058824  0.23529412  0.00000000       0.042
  -0.41176471  0.23529412  0.00000000       0.042
  -0.41176471  0.29411765  0.00000000       0.021
  -0.35294118  0.29411765  0.00000000       0.021
 
 position of ions in fractional coordinates (direct lattice) 
   0.00000000  0.00000000  0.01174216
   0.33333333  0.33333333  0.06098726
   0.66666667  0.66666667  0.11023237
   0.00000000  0.00000000  0.15947747
   0.33333333  0.33333333  0.20892231
   0.66666667  0.66666667  0.25750586
   0.00000000  0.00000000  0.30457366
 
 position of ions in cartesian coordinates  (Angst):
   0.00000000  0.00000000  0.50000000
   1.28410591  0.74137890  2.59693618
   2.56821183  1.48275779  4.69387236
   0.00000000  0.00000000  6.79080853
   1.28410591  0.74137890  8.89624975
   2.56821183  1.48275779 10.96501610
   0.00000000  0.00000000 12.96923895
 


--------------------------------------------------------------------------------------------------------


 k-point  1 :   0.0000 0.0000 0.0000  plane waves:    4405
 k-point  2 :   0.0588 0.0000 0.0000  plane waves:    4383
 k-point  3 :   0.1176 0.0000 0.0000  plane waves:    4397
 k-point  4 :   0.1765-0.0000 0.0000  plane waves:    4401
 k-point  5 :   0.2353 0.0000 0.0000  plane waves:    4399
 k-point  6 :   0.2941 0.0000 0.0000  plane waves:    4423
 k-point  7 :   0.3529-0.0000 0.0000  plane waves:    4433
 k-point  8 :   0.4118 0.0000 0.0000  plane waves:    4450
 k-point  9 :   0.4706 0.0000 0.0000  plane waves:    4462
 k-point 10 :   0.1176 0.0588 0.0000  plane waves:    4389
 k-point 11 :   0.1765 0.0588 0.0000  plane waves:    4398
 k-point 12 :   0.2353 0.0588 0.0000  plane waves:    4401
 k-point 13 :   0.2941 0.0588 0.0000  plane waves:    4411
 k-point 14 :   0.3529 0.0588 0.0000  plane waves:    4419
 k-point 15 :   0.4118 0.0588 0.0000  plane waves:    4444
 k-point 16 :   0.4706 0.0588 0.0000  plane waves:    4446
 k-point 17 :  -0.4706 0.0588 0.0000  plane waves:    4456
 k-point 18 :   0.2353 0.1176 0.0000  plane waves:    4390
 k-point 19 :   0.2941 0.1176 0.0000  plane waves:    4404
 k-point 20 :   0.3529 0.1176 0.0000  plane waves:    4405
 k-point 21 :   0.4118 0.1176 0.0000  plane waves:    4402
 k-point 22 :   0.4706 0.1176 0.0000  plane waves:    4424
 k-point 23 :  -0.4706 0.1176 0.0000  plane waves:    4438
 k-point 24 :   0.3529 0.1765 0.0000  plane waves:    4398
 k-point 25 :   0.4118 0.1765 0.0000  plane waves:    4398
 k-point 26 :   0.4706 0.1765 0.0000  plane waves:    4407
 k-point 27 :  -0.4706 0.1765 0.0000  plane waves:    4421
 k-point 28 :  -0.4118 0.1765 0.0000  plane waves:    4414
 k-point 29 :   0.4706 0.2353 0.0000  plane waves:    4410
 k-point 30 :  -0.4706 0.2353 0.0000  plane waves:    4430
 k-point 31 :  -0.4118 0.2353 0.0000  plane waves:    4446
 k-point 32 :  -0.4118 0.2941 0.0000  plane waves:    4446
 k-point 33 :  -0.3529 0.2941 0.0000  plane waves:    4458

 maximum and minimum number of plane-waves per node :       568      532

 maximum number of plane-waves:      4462
 maximum index in each direction: 
   IXMAX=    4   IYMAX=    4   IZMAX=   69
   IXMIN=   -4   IYMIN=   -4   IZMIN=  -69

 NGX is ok and might be reduce to  18
 NGY is ok and might be reduce to  18
 NGZ is ok and might be reduce to 278

 parallel 3D FFT for wavefunctions:
    minimum data exchange during FFTs selected (reduces bandwidth)
 parallel 3D FFT for charge:
    minimum data exchange during FFTs selected (reduces bandwidth)


 total amount of memory used by VASP on root node    36867. kBytes
========================================================================

   base      :      30000. kBytes
   nonl-proj :       2757. kBytes
   fftplans  :       1893. kBytes
   grid      :       1575. kBytes
   one-center:         15. kBytes
   wavefun   :        627. kBytes
 
     INWAV:  cpu time    0.0000: real time    0.0002
 Broyden mixing: mesh for mixing (old mesh)
   NGX =  9   NGY =  9   NGZ =139
  (NGX  = 36   NGY  = 36   NGZ  =560)
  gives a total of  11259 points

 initial charge density was supplied:
 charge density of overlapping atoms calculated
 number of electron      77.0000000 magnetization 
 keeping initial charge density in first step


--------------------------------------------------------------------------------------------------------


 Maximum index for augmentation-charges         2063 (set IRDMAX)


--------------------------------------------------------------------------------------------------------


 First call to EWALD:  gamma=   0.284
 Maximum number of real-space cells 7x 7x 1
 Maximum number of reciprocal cells 1x 1x16

 FEWALD executed in parallel
    FEWALD:  cpu time    0.0040: real time    0.0038


----------------------------------------- Iteration    1(   1)  ---------------------------------------


vdW kernel read from vdw_kernel.bindat
  0.0000  0.2424  0.5071  0.7962  1.1119  1.4567  1.8333  2.2446  2.6937  3.1842
  3.7199  4.3049  4.9438  5.6415  6.4036  7.2358  8.1446  9.1372 10.2212 11.4050
 12.6979 14.1099 15.6519 17.3360 19.1751 21.1837 23.3773 25.7729 28.3892 31.2465
 34.3669 37.7748 41.4965 45.5611 50.0000
 
    POTLOK:  cpu time    0.7920: real time    0.8037
    SETDIJ:  cpu time    0.0240: real time    0.0268
     EDDAV:  cpu time    3.2562: real time    3.3119
       DOS:  cpu time    0.0040: real time    0.0063
    --------------------------------------------
      LOOP:  cpu time    4.0803: real time    4.1539

 eigenvalue-minimisations  :  3564
 total energy-change (2. order) : 0.5094820E+03  (-0.2941425E+04)
 number of electron      77.0000000 magnetization 
 augmentation part       77.0000000 magnetization 

 Free energy of the ion-electron system (eV)
  ---------------------------------------------------
  alpha Z        PSCENC =       147.33089856
  Ewald energy   TEWEN  =    137864.53754169
  -Hartree energ DENC   =   -147167.50004608
  -exchange      EXHF   =         0.00000000
  -V(xc)+E(xc)   XCENC  =       319.56772766
  PAW double counting   =      8601.87312078    -9339.86861331
  entropy T*S    EENTRO =         0.00601257
  eigenvalues    EBANDS =       317.18979986
  atomic energy  EATOM  =      9766.34555434
  Solvation  Ediel_sol  =         0.00000000
  ---------------------------------------------------
  free energy    TOTEN  =       509.48199607 eV

  energy without entropy =      509.47598350  energy(sigma->0) =      509.47999188


--------------------------------------------------------------------------------------------------------




----------------------------------------- Iteration    1(   2)  ---------------------------------------


     EDDAV:  cpu time    1.5601: real time    1.5643
       DOS:  cpu time    0.0040: real time    0.0016
    --------------------------------------------
      LOOP:  cpu time    1.5641: real time    1.5715

 eigenvalue-minimisations  :  3564
 total energy-change (2. order) :-0.5048081E+03  (-0.4866439E+03)
 number of electron      77.0000000 magnetization 
 augmentation part       77.0000000 magnetization 

 Free energy of the ion-electron system (eV)
  ---------------------------------------------------
  alpha Z        PSCENC =       147.33089856
  Ewald energy   TEWEN  =    137864.53754169
  -Hartree energ DENC   =   -147167.50004608
  -exchange      EXHF   =         0.00000000
  -V(xc)+E(xc)   XCENC  =       319.56772766
  PAW double counting   =      8601.87312078    -9339.86861331
  entropy T*S    EENTRO =         0.00336455
  eigenvalues    EBANDS =      -187.61563661
  atomic energy  EATOM  =      9766.34555434
  Solvation  Ediel_sol  =         0.00000000
  ---------------------------------------------------
  free energy    TOTEN  =         4.67391157 eV

  energy without entropy =        4.67054702  energy(sigma->0) =        4.67279006


--------------------------------------------------------------------------------------------------------




----------------------------------------- Iteration    1(   3)  ---------------------------------------


     EDDAV:  cpu time    2.1241: real time    2.1296
       DOS:  cpu time    0.0000: real time    0.0012
    --------------------------------------------
      LOOP:  cpu time    2.1241: real time    2.1353

 eigenvalue-minimisations  :  5292
 total energy-change (2. order) :-0.1765399E+02  (-0.1753609E+02)
 number of electron      77.0000000 magnetization 
 augmentation part       77.0000000 magnetization 

 Free energy of the ion-electron system (eV)
  ---------------------------------------------------
  alpha Z        PSCENC =       147.33089856
  Ewald energy   TEWEN  =    137864.53754169
  -Hartree energ DENC   =   -147167.50004608
  -exchange      EXHF   =         0.00000000
  -V(xc)+E(xc)   XCENC  =       319.56772766
  PAW double counting   =      8601.87312078    -9339.86861331
  entropy T*S    EENTRO =        -0.00303868
  eigenvalues    EBANDS =      -205.26321864
  atomic energy  EATOM  =      9766.34555434
  Solvation  Ediel_sol  =         0.00000000
  ---------------------------------------------------
  free energy    TOTEN  =       -12.98007369 eV

  energy without entropy =      -12.97703500  energy(sigma->0) =      -12.97906079


--------------------------------------------------------------------------------------------------------




----------------------------------------- Iteration    1(   4)  ---------------------------------------


     EDDAV:  cpu time    1.5321: real time    1.5374
       DOS:  cpu time    0.0040: real time    0.0016
    --------------------------------------------
      LOOP:  cpu time    1.5401: real time    1.5416

 eigenvalue-minimisations  :  3672
 total energy-change (2. order) :-0.2344676E+00  (-0.2344525E+00)
 number of electron      77.0000000 magnetization 
 augmentation part       77.0000000 magnetization 

 Free energy of the ion-electron system (eV)
  ---------------------------------------------------
  alpha Z        PSCENC =       147.33089856
  Ewald energy   TEWEN  =    137864.53754169
  -Hartree energ DENC   =   -147167.50004608
  -exchange      EXHF   =         0.00000000
  -V(xc)+E(xc)   XCENC  =       319.56772766
  PAW double counting   =      8601.87312078    -9339.86861331
  entropy T*S    EENTRO =        -0.00306411
  eigenvalues    EBANDS =      -205.49766083
  atomic energy  EATOM  =      9766.34555434
  Solvation  Ediel_sol  =         0.00000000
  ---------------------------------------------------
  free energy    TOTEN  =       -13.21454130 eV

  energy without entropy =      -13.21147719  energy(sigma->0) =      -13.21351993


--------------------------------------------------------------------------------------------------------




----------------------------------------- Iteration    1(   5)  ---------------------------------------


     EDDAV:  cpu time    2.0481: real time    2.0552
       DOS:  cpu time    0.0040: real time    0.0013
    CHARGE:  cpu time    0.0360: real time    0.0420
    MIXING:  cpu time    0.0080: real time    0.0141
    --------------------------------------------
      LOOP:  cpu time    2.0961: real time    2.1165

 eigenvalue-minimisations  :  5346
 total energy-change (2. order) :-0.7679393E-02  (-0.7679231E-02)
 number of electron      77.0000002 magnetization 
 augmentation part       45.5374707 magnetization 

 Broyden mixing:
  rms(total) = 0.19624E+01    rms(broyden)= 0.19624E+01
  rms(prec ) = 0.19941E+01
  weight for this iteration     100.00

 Free energy of the ion-electron system (eV)
  ---------------------------------------------------
  alpha Z        PSCENC =       147.33089856
  Ewald energy   TEWEN  =    137864.53754169
  -Hartree energ DENC   =   -147167.50004608
  -exchange      EXHF   =         0.00000000
  -V(xc)+E(xc)   XCENC  =       319.56772766
  PAW double counting   =      8601.87312078    -9339.86861331
  entropy T*S    EENTRO =        -0.00306419
  eigenvalues    EBANDS =      -205.50534014
  atomic energy  EATOM  =      9766.34555434
  Solvation  Ediel_sol  =         0.00000000
  ---------------------------------------------------
  free energy    TOTEN  =       -13.22222069 eV

  energy without entropy =      -13.21915650  energy(sigma->0) =      -13.22119930


--------------------------------------------------------------------------------------------------------




----------------------------------------- Iteration    1(   6)  ---------------------------------------


    POTLOK:  cpu time    0.4280: real time    0.4275
    SETDIJ:  cpu time    0.0120: real time    0.0128
     EDDAV:  cpu time    2.1681: real time    2.1735
       DOS:  cpu time    0.0040: real time    0.0013
    CHARGE:  cpu time    0.0320: real time    0.0330
    MIXING:  cpu time    0.0040: real time    0.0095
    --------------------------------------------
      LOOP:  cpu time    2.6482: real time    2.6611

 eigenvalue-minimisations  :  5832
 total energy-change (2. order) : 0.6512123E-01  (-0.5526284E-03)
 number of electron      77.0000002 magnetization 
 augmentation part       45.5565414 magnetization 

 Broyden mixing:
  rms(total) = 0.19524E+01    rms(broyden)= 0.19524E+01
  rms(prec ) = 0.19839E+01
  weight for this iteration     100.00

 eigenvalues of (default mixing * dielectric matrix)
  average eigenvalue GAMMA= 187.3088
187.3088

 Free energy of the ion-electron system (eV)
  ---------------------------------------------------
  alpha Z        PSCENC =       147.33089856
  Ewald energy   TEWEN  =    137864.53754169
  -Hartree energ DENC   =   -147166.95081375
  -exchange      EXHF   =         0.00000000
  -V(xc)+E(xc)   XCENC  =       319.54219830
  PAW double counting   =      8602.17106612    -9340.08039509
  entropy T*S    EENTRO =        -0.00295758
  eigenvalues    EBANDS =      -206.05019206
  atomic energy  EATOM  =      9766.34555434
  Solvation  Ediel_sol  =         0.00000000
  ---------------------------------------------------
  free energy    TOTEN  =       -13.15709946 eV

  energy without entropy =      -13.15414188  energy(sigma->0) =      -13.15611360


--------------------------------------------------------------------------------------------------------




----------------------------------------- Iteration    1(   7)  ---------------------------------------


    POTLOK:  cpu time    0.4200: real time    0.4210
    SETDIJ:  cpu time    0.0160: real time    0.0129
     EDDAV:  cpu time    1.9041: real time    1.9100
       DOS:  cpu time    0.0000: real time    0.0014
    CHARGE:  cpu time    0.0360: real time    0.0330
    MIXING:  cpu time    0.0040: real time    0.0054
    --------------------------------------------
      LOOP:  cpu time    2.3801: real time    2.3876

 eigenvalue-minimisations  :  4806
 total energy-change (2. order) : 0.5410625E+01  (-0.1664256E+01)
 number of electron      77.0000002 magnetization 
 augmentation part       48.6715068 magnetization 

 Broyden mixing:
  rms(total) = 0.39992E+00    rms(broyden)= 0.39985E+00
  rms(prec ) = 0.41019E+00
  weight for this iteration     100.00

 eigenvalues of (default mixing * dielectric matrix)
  average eigenvalue GAMMA= 110.7922
  0.8359220.7485

 Free energy of the ion-electron system (eV)
  ---------------------------------------------------
  alpha Z        PSCENC =       147.33089856
  Ewald energy   TEWEN  =    137864.53754169
  -Hartree energ DENC   =   -147066.19501256
  -exchange      EXHF   =         0.00000000
  -V(xc)+E(xc)   XCENC  =       314.65412503
  PAW double counting   =      8658.25102884    -9378.33929005
  entropy T*S    EENTRO =         0.00478659
  eigenvalues    EBANDS =      -314.33610664
  atomic energy  EATOM  =      9766.34555434
  Solvation  Ediel_sol  =         0.00000000
  ---------------------------------------------------
  free energy    TOTEN  =        -7.74647419 eV

  energy without entropy =       -7.75126079  energy(sigma->0) =       -7.74806973


--------------------------------------------------------------------------------------------------------




----------------------------------------- Iteration    1(   8)  ---------------------------------------


    POTLOK:  cpu time    0.4200: real time    0.4211
    SETDIJ:  cpu time    0.0120: real time    0.0138
     EDDAV:  cpu time    2.1921: real time    2.1946
       DOS:  cpu time    0.0000: real time    0.0013
    CHARGE:  cpu time    0.0360: real time    0.0346
    MIXING:  cpu time    0.0000: real time    0.0015
    --------------------------------------------
      LOOP:  cpu time    2.6602: real time    2.6709

 eigenvalue-minimisations  :  5940
 total energy-change (2. order) : 0.8640338E-01  (-0.8107171E-01)
 number of electron      77.0000002 magnetization 
 augmentation part       49.1989224 magnetization 

 Broyden mixing:
  rms(total) = 0.20616E+00    rms(broyden)= 0.20615E+00
  rms(prec ) = 0.21680E+00
  weight for this iteration     100.00

 eigenvalues of (default mixing * dielectric matrix)
  average eigenvalue GAMMA=  83.1527
241.3816  1.0128  7.0637

 Free energy of the ion-electron system (eV)
  ---------------------------------------------------
  alpha Z        PSCENC =       147.33089856
  Ewald energy   TEWEN  =    137864.53754169
  -Hartree energ DENC   =   -147048.08927391
  -exchange      EXHF   =         0.00000000
  -V(xc)+E(xc)   XCENC  =       313.76764043
  PAW double counting   =      8669.41990387    -9386.27722169
  entropy T*S    EENTRO =         0.00602893
  eigenvalues    EBANDS =      -334.70114302
  atomic energy  EATOM  =      9766.34555434
  Solvation  Ediel_sol  =         0.00000000
  ---------------------------------------------------
  free energy    TOTEN  =        -7.66007081 eV

  energy without entropy =       -7.66609974  energy(sigma->0) =       -7.66208045


--------------------------------------------------------------------------------------------------------




----------------------------------------- Iteration    1(   9)  ---------------------------------------


    POTLOK:  cpu time    0.4280: real time    0.4290
    SETDIJ:  cpu time    0.0160: real time    0.0125
     EDDAV:  cpu time    1.9841: real time    1.9890
       DOS:  cpu time    0.0000: real time    0.0013
    CHARGE:  cpu time    0.0320: real time    0.0339
    MIXING:  cpu time    0.0040: real time    0.0022
    --------------------------------------------
      LOOP:  cpu time    2.4642: real time    2.4716

 eigenvalue-minimisations  :  5076
 total energy-change (2. order) :-0.3779774E-01  (-0.1618811E-01)
 number of electron      77.0000002 magnetization 
 augmentation part       49.4766827 magnetization 

 Broyden mixing:
  rms(total) = 0.20625E+00    rms(broyden)= 0.20625E+00
  rms(prec ) = 0.21324E+00
  weight for this iteration     100.00

 eigenvalues of (default mixing * dielectric matrix)
  average eigenvalue GAMMA=  64.0435
242.3911 12.2768  1.0144  0.4917

 Free energy of the ion-electron system (eV)
  ---------------------------------------------------
  alpha Z        PSCENC =       147.33089856
  Ewald energy   TEWEN  =    137864.53754169
  -Hartree energ DENC   =   -147039.65237637
  -exchange      EXHF   =         0.00000000
  -V(xc)+E(xc)   XCENC  =       313.26368676
  PAW double counting   =      8679.60934926    -9394.92996801
  entropy T*S    EENTRO =         0.00645862
  eigenvalues    EBANDS =      -344.20901339
  atomic energy  EATOM  =      9766.34555434
  Solvation  Ediel_sol  =         0.00000000
  ---------------------------------------------------
  free energy    TOTEN  =        -7.69786855 eV

  energy without entropy =       -7.70432717  energy(sigma->0) =       -7.70002142


--------------------------------------------------------------------------------------------------------




----------------------------------------- Iteration    1(  10)  ---------------------------------------


    POTLOK:  cpu time    0.4280: real time    0.4268
    SETDIJ:  cpu time    0.0120: real time    0.0126
     EDDAV:  cpu time    2.4242: real time    2.4308
       DOS:  cpu time    0.0040: real time    0.0012
    CHARGE:  cpu time    0.0280: real time    0.0310
    MIXING:  cpu time    0.0080: real time    0.0066
    --------------------------------------------
      LOOP:  cpu time    2.9042: real time    2.9130

 eigenvalue-minimisations  :  6453
 total energy-change (2. order) : 0.1219442E-01  (-0.1806002E-02)
 number of electron      77.0000002 magnetization 
 augmentation part       49.4726033 magnetization 

 Broyden mixing:
  rms(total) = 0.20184E+00    rms(broyden)= 0.20184E+00
  rms(prec ) = 0.20735E+00
  weight for this iteration     100.00

 eigenvalues of (default mixing * dielectric matrix)
  average eigenvalue GAMMA=  52.3329
238.6536 19.4627  1.0141  1.2670  1.2670

 Free energy of the ion-electron system (eV)
  ---------------------------------------------------
  alpha Z        PSCENC =       147.33089856
  Ewald energy   TEWEN  =    137864.53754169
  -Hartree energ DENC   =   -147041.55226813
  -exchange      EXHF   =         0.00000000
  -V(xc)+E(xc)   XCENC  =       313.25930818
  PAW double counting   =      8683.79796619    -9399.42854394
  entropy T*S    EENTRO =         0.00641435
  eigenvalues    EBANDS =      -341.98254536
  atomic energy  EATOM  =      9766.34555434
  Solvation  Ediel_sol  =         0.00000000
  ---------------------------------------------------
  free energy    TOTEN  =        -7.68567413 eV

  energy without entropy =       -7.69208848  energy(sigma->0) =       -7.68781224


--------------------------------------------------------------------------------------------------------




----------------------------------------- Iteration    1(  11)  ---------------------------------------


    POTLOK:  cpu time    0.4280: real time    0.4286
    SETDIJ:  cpu time    0.0120: real time    0.0129
     EDDAV:  cpu time    2.0001: real time    2.0058
       DOS:  cpu time    0.0040: real time    0.0017
    CHARGE:  cpu time    0.0320: real time    0.0325
    MIXING:  cpu time    0.0040: real time    0.0048
    --------------------------------------------
      LOOP:  cpu time    2.4802: real time    2.4914

 eigenvalue-minimisations  :  5238
 total energy-change (2. order) : 0.1833922E-01  (-0.6802468E-03)
 number of electron      77.0000002 magnetization 
 augmentation part       49.4236958 magnetization 

 Broyden mixing:
  rms(total) = 0.19194E+00    rms(broyden)= 0.19194E+00
  rms(prec ) = 0.19740E+00
  weight for this iteration     100.00

 eigenvalues of (default mixing * dielectric matrix)
  average eigenvalue GAMMA=  48.1557
238.6028 23.6221 23.6221  0.9193  1.0118  1.1560

 Free energy of the ion-electron system (eV)
  ---------------------------------------------------
  alpha Z        PSCENC =       147.33089856
  Ewald energy   TEWEN  =    137864.53754169
  -Hartree energ DENC   =   -147044.03673858
  -exchange      EXHF   =         0.00000000
  -V(xc)+E(xc)   XCENC  =       313.34188473
  PAW double counting   =      8684.53394501    -9400.60679077
  entropy T*S    EENTRO =         0.00632898
  eigenvalues    EBANDS =      -339.11995887
  atomic energy  EATOM  =      9766.34555434
  Solvation  Ediel_sol  =         0.00000000
  ---------------------------------------------------
  free energy    TOTEN  =        -7.66733490 eV

  energy without entropy =       -7.67366389  energy(sigma->0) =       -7.66944456


--------------------------------------------------------------------------------------------------------




----------------------------------------- Iteration    1(  12)  ---------------------------------------


    POTLOK:  cpu time    0.4240: real time    0.4235
    SETDIJ:  cpu time    0.0120: real time    0.0132
     EDDAV:  cpu time    1.9241: real time    1.9284
       DOS:  cpu time    0.0040: real time    0.0012
    CHARGE:  cpu time    0.0320: real time    0.0346
    MIXING:  cpu time    0.0040: real time    0.0029
    --------------------------------------------
      LOOP:  cpu time    2.4002: real time    2.4084

 eigenvalue-minimisations  :  4995
 total energy-change (2. order) : 0.5357303E-01  (-0.2943681E-02)
 number of electron      77.0000002 magnetization 
 augmentation part       49.3580410 magnetization 

 Broyden mixing:
  rms(total) = 0.16951E+00    rms(broyden)= 0.16951E+00
  rms(prec ) = 0.17394E+00
  weight for this iteration     100.00

 eigenvalues of (default mixing * dielectric matrix)
  average eigenvalue GAMMA=  67.3449
267.2186185.6759 14.4471  1.0644  1.0212  0.9935  0.9935

 Free energy of the ion-electron system (eV)
  ---------------------------------------------------
  alpha Z        PSCENC =       147.33089856
  Ewald energy   TEWEN  =    137864.53754169
  -Hartree energ DENC   =   -147053.20052003
  -exchange      EXHF   =         0.00000000
  -V(xc)+E(xc)   XCENC  =       313.37332423
  PAW double counting   =      8705.75844742    -9423.64681437
  entropy T*S    EENTRO =         0.00663123
  eigenvalues    EBANDS =      -328.11882494
  atomic energy  EATOM  =      9766.34555434
  Solvation  Ediel_sol  =         0.00000000
  ---------------------------------------------------
  free energy    TOTEN  =        -7.61376187 eV

  energy without entropy =       -7.62039310  energy(sigma->0) =       -7.61597228


--------------------------------------------------------------------------------------------------------




----------------------------------------- Iteration    1(  13)  ---------------------------------------


    POTLOK:  cpu time    0.4240: real time    0.4249
    SETDIJ:  cpu time    0.0120: real time    0.0131
     EDDAV:  cpu time    1.9721: real time    1.9759
       DOS:  cpu time    0.0040: real time    0.0013
    CHARGE:  cpu time    0.0280: real time    0.0303
    MIXING:  cpu time    0.0040: real time    0.0049
    --------------------------------------------
      LOOP:  cpu time    2.4442: real time    2.4547

 eigenvalue-minimisations  :  4995
 total energy-change (2. order) : 0.8677028E-01  (-0.1766664E-01)
 number of electron      77.0000002 magnetization 
 augmentation part       49.2487205 magnetization 

 Broyden mixing:
  rms(total) = 0.12651E+00    rms(broyden)= 0.12651E+00
  rms(prec ) = 0.13329E+00
  weight for this iteration     100.00

 eigenvalues of (default mixing * dielectric matrix)
  average eigenvalue GAMMA=  60.9536
271.6155191.4487 13.9453  6.5143  1.1445  1.0104  1.0104  0.9394

 Free energy of the ion-electron system (eV)
  ---------------------------------------------------
  alpha Z        PSCENC =       147.33089856
  Ewald energy   TEWEN  =    137864.53754169
  -Hartree energ DENC   =   -147077.02015552
  -exchange      EXHF   =         0.00000000
  -V(xc)+E(xc)   XCENC  =       313.30988500
  PAW double counting   =      8769.78323940    -9492.39825565
  entropy T*S    EENTRO =         0.00665933
  eigenvalues    EBANDS =      -299.42235875
  atomic energy  EATOM  =      9766.34555434
  Solvation  Ediel_sol  =         0.00000000
  ---------------------------------------------------
  free energy    TOTEN  =        -7.52699160 eV

  energy without entropy =       -7.53365093  energy(sigma->0) =       -7.52921137


--------------------------------------------------------------------------------------------------------




----------------------------------------- Iteration    1(  14)  ---------------------------------------


    POTLOK:  cpu time    0.4200: real time    0.4246
    SETDIJ:  cpu time    0.0160: real time    0.0128
     EDDAV:  cpu time    1.8801: real time    1.8860
       DOS:  cpu time    0.0040: real time    0.0016
    CHARGE:  cpu time    0.0280: real time    0.0308
    MIXING:  cpu time    0.0080: real time    0.0049
    --------------------------------------------
      LOOP:  cpu time    2.3601: real time    2.3650

 eigenvalue-minimisations  :  4887
 total energy-change (2. order) : 0.5033985E-02  (-0.5967322E-03)
 number of electron      77.0000002 magnetization 
 augmentation part       49.2471513 magnetization 

 Broyden mixing:
  rms(total) = 0.12305E+00    rms(broyden)= 0.12305E+00
  rms(prec ) = 0.12843E+00
  weight for this iteration     100.00

 eigenvalues of (default mixing * dielectric matrix)
  average eigenvalue GAMMA=  70.3848
318.3848255.6909 39.9189 14.4619  1.1525  1.0006  1.0006  0.9264  0.9264

 Free energy of the ion-electron system (eV)
  ---------------------------------------------------
  alpha Z        PSCENC =       147.33089856
  Ewald energy   TEWEN  =    137864.53754169
  -Hartree energ DENC   =   -147076.11277178
  -exchange      EXHF   =         0.00000000
  -V(xc)+E(xc)   XCENC  =       313.30006673
  PAW double counting   =      8773.23326218    -9496.08067443
  entropy T*S    EENTRO =         0.00643174
  eigenvalues    EBANDS =      -300.08226664
  atomic energy  EATOM  =      9766.34555434
  Solvation  Ediel_sol  =         0.00000000
  ---------------------------------------------------
  free energy    TOTEN  =        -7.52195761 eV

  energy without entropy =       -7.52838935  energy(sigma->0) =       -7.52410153


--------------------------------------------------------------------------------------------------------




----------------------------------------- Iteration    1(  15)  ---------------------------------------


    POTLOK:  cpu time    0.4240: real time    0.4251
    SETDIJ:  cpu time    0.0120: real time    0.0133
     EDDAV:  cpu time    2.0361: real time    2.0418
       DOS:  cpu time    0.0040: real time    0.0013
    CHARGE:  cpu time    0.0360: real time    0.0355
    MIXING:  cpu time    0.0000: real time    0.0018
    --------------------------------------------
      LOOP:  cpu time    2.5122: real time    2.5230

 eigenvalue-minimisations  :  5346
 total energy-change (2. order) : 0.4207881E-01  (-0.4147899E-01)
 number of electron      77.0000002 magnetization 
 augmentation part       48.9480717 magnetization 

 Broyden mixing:
  rms(total) = 0.18927E+00    rms(broyden)= 0.18927E+00
  rms(prec ) = 0.19379E+00
  weight for this iteration     100.00

 eigenvalues of (default mixing * dielectric matrix)
  average eigenvalue GAMMA=  71.8980
383.7055273.0795 41.2470 14.4684  1.2889  0.9588  0.9946  0.9946  1.1213  1.1213

 Free energy of the ion-electron system (eV)
  ---------------------------------------------------
  alpha Z        PSCENC =       147.33089856
  Ewald energy   TEWEN  =    137864.53754169
  -Hartree energ DENC   =   -147093.64108554
  -exchange      EXHF   =         0.00000000
  -V(xc)+E(xc)   XCENC  =       313.51041832
  PAW double counting   =      8861.16257759    -9591.93983835
  entropy T*S    EENTRO =         0.00062102
  eigenvalues    EBANDS =      -274.78656643
  atomic energy  EATOM  =      9766.34555434
  Solvation  Ediel_sol  =         0.00000000
  ---------------------------------------------------
  free energy    TOTEN  =        -7.47987880 eV

  energy without entropy =       -7.48049982  energy(sigma->0) =       -7.48008581


--------------------------------------------------------------------------------------------------------




----------------------------------------- Iteration    1(  16)  ---------------------------------------


    POTLOK:  cpu time    0.4880: real time    0.4858
    SETDIJ:  cpu time    0.0120: real time    0.0129
     EDDAV:  cpu time    2.2401: real time    2.2447
       DOS:  cpu time    0.0000: real time    0.0012
    CHARGE:  cpu time    0.0320: real time    0.0332
    MIXING:  cpu time    0.0080: real time    0.0067
    --------------------------------------------
      LOOP:  cpu time    2.7802: real time    2.7887

 eigenvalue-minimisations  :  6021
 total energy-change (2. order) :-0.5370918E-01  (-0.1502173E-01)
 number of electron      77.0000002 magnetization 
 augmentation part       48.7452174 magnetization 

 Broyden mixing:
  rms(total) = 0.28468E+00    rms(broyden)= 0.28468E+00
  rms(prec ) = 0.29081E+00
  weight for this iteration     100.00

 eigenvalues of (default mixing * dielectric matrix)
  average eigenvalue GAMMA=  66.0021
393.9333269.3019 41.4918 14.4575  1.2289  0.9595  0.9943  0.9943  1.0661  1.0661
  0.5295

 Free energy of the ion-electron system (eV)
  ---------------------------------------------------
  alpha Z        PSCENC =       147.33089856
  Ewald energy   TEWEN  =    137864.53754169
  -Hartree energ DENC   =   -147105.34215161
  -exchange      EXHF   =         0.00000000
  -V(xc)+E(xc)   XCENC  =       313.71546476
  PAW double counting   =      8887.75705858    -9621.58884328
  entropy T*S    EENTRO =        -0.00047029
  eigenvalues    EBANDS =      -260.28864073
  atomic energy  EATOM  =      9766.34555434
  Solvation  Ediel_sol  =         0.00000000
  ---------------------------------------------------
  free energy    TOTEN  =        -7.53358797 eV

  energy without entropy =       -7.53311769  energy(sigma->0) =       -7.53343121


--------------------------------------------------------------------------------------------------------




----------------------------------------- Iteration    1(  17)  ---------------------------------------


    POTLOK:  cpu time    0.4160: real time    0.4191
    SETDIJ:  cpu time    0.0160: real time    0.0131
     EDDAV:  cpu time    2.4242: real time    2.4295
       DOS:  cpu time    0.0000: real time    0.0013
    CHARGE:  cpu time    0.0360: real time    0.0349
    MIXING:  cpu time    0.0040: real time    0.0031
    --------------------------------------------
      LOOP:  cpu time    2.8962: real time    2.9052

 eigenvalue-minimisations  :  6507
 total energy-change (2. order) :-0.8215390E-02  (-0.1183973E-02)
 number of electron      77.0000002 magnetization 
 augmentation part       48.7411993 magnetization 

 Broyden mixing:
  rms(total) = 0.29398E+00    rms(broyden)= 0.29398E+00
  rms(prec ) = 0.30116E+00
  weight for this iteration     100.00

 eigenvalues of (default mixing * dielectric matrix)
  average eigenvalue GAMMA=  67.9495
438.7496267.7719 64.8944 23.0741 13.8754  1.1141  1.1141  0.9964  0.9964  0.9571
  0.9254  0.9254

 Free energy of the ion-electron system (eV)
  ---------------------------------------------------
  alpha Z        PSCENC =       147.33089856
  Ewald energy   TEWEN  =    137864.53754169
  -Hartree energ DENC   =   -147106.94858643
  -exchange      EXHF   =         0.00000000
  -V(xc)+E(xc)   XCENC  =       313.66005773
  PAW double counting   =      8903.87055436    -9638.69776069
  entropy T*S    EENTRO =        -0.00214662
  eigenvalues    EBANDS =      -257.63791630
  atomic energy  EATOM  =      9766.34555434
  Solvation  Ediel_sol  =         0.00000000
  ---------------------------------------------------
  free energy    TOTEN  =        -7.54180336 eV

  energy without entropy =       -7.53965675  energy(sigma->0) =       -7.54108782


--------------------------------------------------------------------------------------------------------




----------------------------------------- Iteration    1(  18)  ---------------------------------------


    POTLOK:  cpu time    0.4280: real time    0.4279
    SETDIJ:  cpu time    0.0120: real time    0.0129
     EDDAV:  cpu time    2.2201: real time    2.2249
       DOS:  cpu time    0.0000: real time    0.0013
    CHARGE:  cpu time    0.0320: real time    0.0318
    MIXING:  cpu time    0.0040: real time    0.0055
    --------------------------------------------
      LOOP:  cpu time    2.6962: real time    2.7081

 eigenvalue-minimisations  :  5994
 total energy-change (2. order) : 0.3344856E-01  (-0.2484372E-02)
 number of electron      77.0000002 magnetization 
 augmentation part       48.7794354 magnetization 

 Broyden mixing:
  rms(total) = 0.26183E+00    rms(broyden)= 0.26183E+00
  rms(prec ) = 0.27005E+00
  weight for this iteration     100.00

 eigenvalues of (default mixing * dielectric matrix)
  average eigenvalue GAMMA=  75.1910
566.2455254.0004102.6269 32.4070 14.1201  1.1265  1.1265  1.0008  0.9540  0.9865
  1.0370  1.0370  0.8146

 Free energy of the ion-electron system (eV)
  ---------------------------------------------------
  alpha Z        PSCENC =       147.33089856
  Ewald energy   TEWEN  =    137864.53754169
  -Hartree energ DENC   =   -147097.66173468
  -exchange      EXHF   =         0.00000000
  -V(xc)+E(xc)   XCENC  =       313.46114376
  PAW double counting   =      8949.61563258    -9687.23002617
  entropy T*S    EENTRO =        -0.00436816
  eigenvalues    EBANDS =      -263.90299673
  atomic energy  EATOM  =      9766.34555434
  Solvation  Ediel_sol  =         0.00000000
  ---------------------------------------------------
  free energy    TOTEN  =        -7.50835481 eV

  energy without entropy =       -7.50398665  energy(sigma->0) =       -7.50689875


--------------------------------------------------------------------------------------------------------




----------------------------------------- Iteration    1(  19)  ---------------------------------------


    POTLOK:  cpu time    0.4240: real time    0.4261
    SETDIJ:  cpu time    0.0120: real time    0.0131
     EDDAV:  cpu time    1.9841: real time    1.9881
       DOS:  cpu time    0.0000: real time    0.0013
    CHARGE:  cpu time    0.0360: real time    0.0333
    MIXING:  cpu time    0.0040: real time    0.0054
    --------------------------------------------
      LOOP:  cpu time    2.4642: real time    2.4715

 eigenvalue-minimisations  :  5130
 total energy-change (2. order) : 0.5923873E-01  (-0.8473982E-02)
 number of electron      77.0000002 magnetization 
 augmentation part       48.8717600 magnetization 

 Broyden mixing:
  rms(total) = 0.18238E+00    rms(broyden)= 0.18238E+00
  rms(prec ) = 0.18668E+00
  weight for this iteration     100.00

 eigenvalues of (default mixing * dielectric matrix)
  average eigenvalue GAMMA=  69.8693
566.8563253.8594102.6224 32.3003 14.1195  1.1342  1.1342  1.0560  1.0560  0.9538
  1.0008  0.9864  0.8014  0.2891

 Free energy of the ion-electron system (eV)
  ---------------------------------------------------
  alpha Z        PSCENC =       147.33089856
  Ewald energy   TEWEN  =    137864.53754169
  -Hartree energ DENC   =   -147094.73986732
  -exchange      EXHF   =         0.00000000
  -V(xc)+E(xc)   XCENC  =       313.09334193
  PAW double counting   =      9016.12455235    -9757.33209351
  entropy T*S    EENTRO =         0.00003619
  eigenvalues    EBANDS =      -262.80908030
  atomic energy  EATOM  =      9766.34555434
  Solvation  Ediel_sol  =         0.00000000
  ---------------------------------------------------
  free energy    TOTEN  =        -7.44911607 eV

  energy without entropy =       -7.44915226  energy(sigma->0) =       -7.44912813


--------------------------------------------------------------------------------------------------------




----------------------------------------- Iteration    1(  20)  ---------------------------------------


    POTLOK:  cpu time    0.4280: real time    0.4260
    SETDIJ:  cpu time    0.0120: real time    0.0131
     EDDAV:  cpu time    2.1601: real time    2.1641
       DOS:  cpu time    0.0000: real time    0.0011
    CHARGE:  cpu time    0.0320: real time    0.0326
    MIXING:  cpu time    0.0040: real time    0.0056
    --------------------------------------------
      LOOP:  cpu time    2.6402: real time    2.6472

 eigenvalue-minimisations  :  5751
 total energy-change (2. order) : 0.4885621E-03  (-0.4229812E-03)
 number of electron      77.0000002 magnetization 
 augmentation part       48.8804017 magnetization 

 Broyden mixing:
  rms(total) = 0.17917E+00    rms(broyden)= 0.17917E+00
  rms(prec ) = 0.18347E+00
  weight for this iteration     100.00

 eigenvalues of (default mixing * dielectric matrix)
  average eigenvalue GAMMA=  68.4550
604.1362248.2050109.0547 33.0511 14.1332  9.3254  1.1362  1.1362  1.0191  1.0191
  1.0033  0.9859  0.9508  0.8346  0.8346

 Free energy of the ion-electron system (eV)
  ---------------------------------------------------
  alpha Z        PSCENC =       147.33089856
  Ewald energy   TEWEN  =    137864.53754169
  -Hartree energ DENC   =   -147093.99818494
  -exchange      EXHF   =         0.00000000
  -V(xc)+E(xc)   XCENC  =       313.08425555
  PAW double counting   =      9017.02860563    -9758.26467537
  entropy T*S    EENTRO =        -0.00029859
  eigenvalues    EBANDS =      -263.51232439
  atomic energy  EATOM  =      9766.34555434
  Solvation  Ediel_sol  =         0.00000000
  ---------------------------------------------------
  free energy    TOTEN  =        -7.44862751 eV

  energy without entropy =       -7.44832892  energy(sigma->0) =       -7.44852798


--------------------------------------------------------------------------------------------------------




----------------------------------------- Iteration    1(  21)  ---------------------------------------


    POTLOK:  cpu time    0.4240: real time    0.4277
    SETDIJ:  cpu time    0.0160: real time    0.0130
     EDDAV:  cpu time    2.0361: real time    2.0415
       DOS:  cpu time    0.0000: real time    0.0014
    CHARGE:  cpu time    0.0360: real time    0.0332
    MIXING:  cpu time    0.0040: real time    0.0052
    --------------------------------------------
      LOOP:  cpu time    2.5162: real time    2.5245

 eigenvalue-minimisations  :  5157
 total energy-change (2. order) : 0.6670655E-02  (-0.2664936E-03)
 number of electron      77.0000002 magnetization 
 augmentation part       48.9081028 magnetization 

 Broyden mixing:
  rms(total) = 0.16433E+00    rms(broyden)= 0.16433E+00
  rms(prec ) = 0.16862E+00
  weight for this iteration     100.00

 eigenvalues of (default mixing * dielectric matrix)
  average eigenvalue GAMMA=  85.2362
824.0685240.0935158.1078 84.0307 33.2931 14.1488  1.2079  1.1191  0.9834  0.9834
  1.0278  1.0027  1.0027  0.9400  0.9040  0.8654

 Free energy of the ion-electron system (eV)
  ---------------------------------------------------
  alpha Z        PSCENC =       147.33089856
  Ewald energy   TEWEN  =    137864.53754169
  -Hartree energ DENC   =   -147093.48357915
  -exchange      EXHF   =         0.00000000
  -V(xc)+E(xc)   XCENC  =       312.99249445
  PAW double counting   =      9031.01968241    -9772.92583578
  entropy T*S    EENTRO =        -0.00019670
  eigenvalues    EBANDS =      -263.25851667
  atomic energy  EATOM  =      9766.34555434
  Solvation  Ediel_sol  =         0.00000000
  ---------------------------------------------------
  free energy    TOTEN  =        -7.44195685 eV

  energy without entropy =       -7.44176015  energy(sigma->0) =       -7.44189129


--------------------------------------------------------------------------------------------------------




----------------------------------------- Iteration    1(  22)  ---------------------------------------


    POTLOK:  cpu time    0.4280: real time    0.4277
    SETDIJ:  cpu time    0.0120: real time    0.0130
     EDDAV:  cpu time    2.0001: real time    2.0051
       DOS:  cpu time    0.0040: real time    0.0015
    CHARGE:  cpu time    0.0320: real time    0.0350
    MIXING:  cpu time    0.0040: real time    0.0029
    --------------------------------------------
      LOOP:  cpu time    2.4802: real time    2.4893

 eigenvalue-minimisations  :  5076
 total energy-change (2. order) : 0.4884725E-01  (-0.1153443E-01)
 number of electron      77.0000002 magnetization 
 augmentation part       49.0588385 magnetization 

 Broyden mixing:
  rms(total) = 0.49512E-01    rms(broyden)= 0.49509E-01
  rms(prec ) = 0.51675E-01
  weight for this iteration     100.00

 eigenvalues of (default mixing * dielectric matrix)
  average eigenvalue GAMMA=  81.0743
849.3829234.2243166.2694 69.2798 33.4791 14.1488  1.7265  1.1003  1.0643  0.9950
  0.9950  1.0112  1.0112  0.9381  0.8517  0.8928  0.8928

 Free energy of the ion-electron system (eV)
  ---------------------------------------------------
  alpha Z        PSCENC =       147.33089856
  Ewald energy   TEWEN  =    137864.53754169
  -Hartree energ DENC   =   -147075.98050656
  -exchange      EXHF   =         0.00000000
  -V(xc)+E(xc)   XCENC  =       312.43777775
  PAW double counting   =      9132.48445613    -9879.83518802
  entropy T*S    EENTRO =         0.00241469
  eigenvalues    EBANDS =      -274.71605818
  atomic energy  EATOM  =      9766.34555434
  Solvation  Ediel_sol  =         0.00000000
  ---------------------------------------------------
  free energy    TOTEN  =        -7.39310960 eV

  energy without entropy =       -7.39552429  energy(sigma->0) =       -7.39391450


--------------------------------------------------------------------------------------------------------




----------------------------------------- Iteration    1(  23)  ---------------------------------------


    POTLOK:  cpu time    0.4280: real time    0.4266
    SETDIJ:  cpu time    0.0120: real time    0.0133
     EDDAV:  cpu time    2.2521: real time    2.2563
       DOS:  cpu time    0.0000: real time    0.0019
    CHARGE:  cpu time    0.0360: real time    0.0334
    MIXING:  cpu time    0.0040: real time    0.0051
    --------------------------------------------
      LOOP:  cpu time    2.7322: real time    2.7406

 eigenvalue-minimisations  :  5724
 total energy-change (2. order) : 0.3821073E-03  (-0.1135827E-02)
 number of electron      77.0000002 magnetization 
 augmentation part       49.0947743 magnetization 

 Broyden mixing:
  rms(total) = 0.38196E-01    rms(broyden)= 0.38196E-01
  rms(prec ) = 0.40195E-01
  weight for this iteration     100.00

 eigenvalues of (default mixing * dielectric matrix)
  average eigenvalue GAMMA=  76.6868
850.5446234.1734166.4087 69.8356 33.4673 14.1487  0.4222  1.5958  1.1012  1.0628
  0.9946  0.9946  1.0119  1.0119  0.9383  0.8530  0.8989  0.8989

 Free energy of the ion-electron system (eV)
  ---------------------------------------------------
  alpha Z        PSCENC =       147.33089856
  Ewald energy   TEWEN  =    137864.53754169
  -Hartree energ DENC   =   -147073.78059879
  -exchange      EXHF   =         0.00000000
  -V(xc)+E(xc)   XCENC  =       312.36261360
  PAW double counting   =      9141.02675834    -9888.68860847
  entropy T*S    EENTRO =         0.00197734
  eigenvalues    EBANDS =      -276.52886411
  atomic energy  EATOM  =      9766.34555434
  Solvation  Ediel_sol  =         0.00000000
  ---------------------------------------------------
  free energy    TOTEN  =        -7.39272750 eV

  energy without entropy =       -7.39470484  energy(sigma->0) =       -7.39338661


--------------------------------------------------------------------------------------------------------




----------------------------------------- Iteration    1(  24)  ---------------------------------------


    POTLOK:  cpu time    0.4200: real time    0.4201
    SETDIJ:  cpu time    0.0160: real time    0.0164
     EDDAV:  cpu time    2.0521: real time    2.0559
       DOS:  cpu time    0.0000: real time    0.0013
    CHARGE:  cpu time    0.0360: real time    0.0348
    MIXING:  cpu time    0.0040: real time    0.0044
    --------------------------------------------
      LOOP:  cpu time    2.5282: real time    2.5368

 eigenvalue-minimisations  :  5022
 total energy-change (2. order) :-0.9245614E-04  (-0.3240515E-04)
 number of electron      77.0000002 magnetization 
 augmentation part       49.0950349 magnetization 

 Broyden mixing:
  rms(total) = 0.38480E-01    rms(broyden)= 0.38480E-01
  rms(prec ) = 0.40496E-01
  weight for this iteration     100.00

 eigenvalues of (default mixing * dielectric matrix)
  average eigenvalue GAMMA=  74.0516
849.2600235.1690158.5509 74.7585 35.3727 27.7278 14.1448  1.0904  1.0904  1.1063
  1.1063  0.9172  0.9172  0.8544  1.0038  1.0038  0.9858  0.9858  0.9345

 Free energy of the ion-electron system (eV)
  ---------------------------------------------------
  alpha Z        PSCENC =       147.33089856
  Ewald energy   TEWEN  =    137864.53754169
  -Hartree energ DENC   =   -147073.79865727
  -exchange      EXHF   =         0.00000000
  -V(xc)+E(xc)   XCENC  =       312.36642284
  PAW double counting   =      9140.28212514    -9887.90359095
  entropy T*S    EENTRO =         0.00192876
  eigenvalues    EBANDS =      -276.55504306
  atomic energy  EATOM  =      9766.34555434
  Solvation  Ediel_sol  =         0.00000000
  ---------------------------------------------------
  free energy    TOTEN  =        -7.39281995 eV

  energy without entropy =       -7.39474871  energy(sigma->0) =       -7.39346287


--------------------------------------------------------------------------------------------------------




----------------------------------------- Iteration    1(  25)  ---------------------------------------


    POTLOK:  cpu time    0.4280: real time    0.4271
    SETDIJ:  cpu time    0.0120: real time    0.0136
     EDDAV:  cpu time    2.0161: real time    2.0216
       DOS:  cpu time    0.0040: real time    0.0015
    CHARGE:  cpu time    0.0360: real time    0.0369
    MIXING:  cpu time    0.0040: real time    0.0025
    --------------------------------------------
      LOOP:  cpu time    2.5002: real time    2.5073

 eigenvalue-minimisations  :  5103
 total energy-change (2. order) :-0.4209140E-03  (-0.3049303E-03)
 number of electron      77.0000002 magnetization 
 augmentation part       49.0724069 magnetization 

 Broyden mixing:
  rms(total) = 0.43818E-01    rms(broyden)= 0.43818E-01
  rms(prec ) = 0.46608E-01
  weight for this iteration     100.00

 eigenvalues of (default mixing * dielectric matrix)
  average eigenvalue GAMMA=  81.4898
912.4321197.0542193.7694193.7694 72.3836 33.2552 14.1469  1.1806  1.1103  1.0628
  1.0628  0.9252  0.9252  1.0253  1.0253  0.9963  0.9963  0.9420  0.8663  0.8663

 Free energy of the ion-electron system (eV)
  ---------------------------------------------------
  alpha Z        PSCENC =       147.33089856
  Ewald energy   TEWEN  =    137864.53754169
  -Hartree energ DENC   =   -147073.78418909
  -exchange      EXHF   =         0.00000000
  -V(xc)+E(xc)   XCENC  =       312.40452123
  PAW double counting   =      9140.98875930    -9888.83856261
  entropy T*S    EENTRO =         0.00134315
  eigenvalues    EBANDS =      -276.37910743
  atomic energy  EATOM  =      9766.34555434
  Solvation  Ediel_sol  =         0.00000000
  ---------------------------------------------------
  free energy    TOTEN  =        -7.39324087 eV

  energy without entropy =       -7.39458402  energy(sigma->0) =       -7.39368858


--------------------------------------------------------------------------------------------------------




----------------------------------------- Iteration    1(  26)  ---------------------------------------


    POTLOK:  cpu time    0.4240: real time    0.4273
    SETDIJ:  cpu time    0.0160: real time    0.0130
     EDDAV:  cpu time    2.2561: real time    2.2616
       DOS:  cpu time    0.0000: real time    0.0021
    CHARGE:  cpu time    0.0320: real time    0.0323
    MIXING:  cpu time    0.0080: real time    0.0063
    --------------------------------------------
      LOOP:  cpu time    2.7362: real time    2.7474

 eigenvalue-minimisations  :  5913
 total energy-change (2. order) : 0.6037590E-02  (-0.1389615E-02)
 number of electron      77.0000002 magnetization 
 augmentation part       49.1083810 magnetization 

 Broyden mixing:
  rms(total) = 0.15371E-01    rms(broyden)= 0.15370E-01
  rms(prec ) = 0.16649E-01
  weight for this iteration     100.00

 eigenvalues of (default mixing * dielectric matrix)
  average eigenvalue GAMMA=  77.6585
912.3592196.0919196.0919193.1800 72.2141 33.2517 14.1469  0.5165  1.1666  1.1119
  1.0563  1.0563  0.9278  0.9278  1.0240  1.0240  0.9963  0.9963  0.8731  0.8731
  0.9431

 Free energy of the ion-electron system (eV)
  ---------------------------------------------------
  alpha Z        PSCENC =       147.33089856
  Ewald energy   TEWEN  =    137864.53754169
  -Hartree energ DENC   =   -147069.33990421
  -exchange      EXHF   =         0.00000000
  -V(xc)+E(xc)   XCENC  =       312.26764097
  PAW double counting   =      9166.24181986    -9915.38636069
  entropy T*S    EENTRO =         0.00254786
  eigenvalues    EBANDS =      -279.38694165
  atomic energy  EATOM  =      9766.34555434
  Solvation  Ediel_sol  =         0.00000000
  ---------------------------------------------------
  free energy    TOTEN  =        -7.38720328 eV

  energy without entropy =       -7.38975113  energy(sigma->0) =       -7.38805256


--------------------------------------------------------------------------------------------------------




----------------------------------------- Iteration    1(  27)  ---------------------------------------


    POTLOK:  cpu time    0.4320: real time    0.4306
    SETDIJ:  cpu time    0.0120: real time    0.0128
     EDDAV:  cpu time    1.8481: real time    1.8543
       DOS:  cpu time    0.0040: real time    0.0012
    CHARGE:  cpu time    0.0320: real time    0.0325
    MIXING:  cpu time    0.0040: real time    0.0059
    --------------------------------------------
      LOOP:  cpu time    2.3321: real time    2.3425

 eigenvalue-minimisations  :  4779
 total energy-change (2. order) : 0.2656625E-04  (-0.8104666E-04)
 number of electron      77.0000002 magnetization 
 augmentation part       49.1101467 magnetization 

 Broyden mixing:
  rms(total) = 0.14097E-01    rms(broyden)= 0.14097E-01
  rms(prec ) = 0.15266E-01
  weight for this iteration     100.00

 eigenvalues of (default mixing * dielectric matrix)
  average eigenvalue GAMMA=  74.3919
912.0905202.2773202.2773185.0489 72.4460 33.2503 14.1469  1.6025  1.1683  1.1115
  1.0583  1.0583  0.9265  0.9265  1.0243  1.0243  0.9966  0.9966  0.9425  0.8691
  0.8691  0.5095

 Free energy of the ion-electron system (eV)
  ---------------------------------------------------
  alpha Z        PSCENC =       147.33089856
  Ewald energy   TEWEN  =    137864.53754169
  -Hartree energ DENC   =   -147069.21565794
  -exchange      EXHF   =         0.00000000
  -V(xc)+E(xc)   XCENC  =       312.26263872
  PAW double counting   =      9167.09113178    -9916.27892789
  entropy T*S    EENTRO =         0.00264150
  eigenvalues    EBANDS =      -279.46299747
  atomic energy  EATOM  =      9766.34555434
  Solvation  Ediel_sol  =         0.00000000
  ---------------------------------------------------
  free energy    TOTEN  =        -7.38717671 eV

  energy without entropy =       -7.38981821  energy(sigma->0) =       -7.38805721


[...]
     45       6.3301      0.00000
     46       6.6478      0.00000
     47       6.8802      0.00000
     48       7.3114      0.00000
     49       7.7734      0.00000
     50       8.1090      0.00000
     51       8.4226      0.00000
     52       8.7409      0.00000
     53       8.7590      0.00000
     54       8.8338      0.00000

 k-point    30 :      -0.4706    0.2353    0.0000
  band No.  band energies     occupation 
      1      -5.2403      2.00000
      2      -5.1356      2.00000
      3      -5.0817      2.00000
      4      -4.9738      2.00000
      5      -4.8734      2.00000
      6      -4.7830      2.00000
      7      -4.7381      2.00000
      8      -4.5875      2.00000
      9      -4.5404      2.00000
     10      -4.4213      2.00000
     11      -4.3332      2.00000
     12      -4.2425      2.00000
     13      -4.1946      2.00000
     14      -4.1536      2.00000
     15      -4.0087      2.00000
     16      -3.9544      2.00000
     17      -3.8667      2.00000
     18      -3.7333      2.00000
     19      -3.4608      2.00000
     20      -3.4302      2.00000
     21      -3.3872      2.00000
     22      -3.3558      2.00000
     23      -3.2773      2.00000
     24      -3.1498      2.00000
     25      -3.0759      2.00000
     26      -3.0011      2.00000
     27      -2.8551      2.00000
     28      -2.8119      2.00000
     29      -2.7581      2.00000
     30      -2.6111      2.00000
     31      -2.4579      2.00000
     32      -2.4221      2.00000
     33      -2.3897      2.00000
     34      -2.3164      2.00000
     35      -2.2835      2.00000
     36      -0.6102      0.02529
     37      -0.3441     -0.01064
     38       0.1419     -0.00000
     39       0.9027     -0.00000
     40       1.9667     -0.00000
     41       3.2300     -0.00000
     42       4.1892     -0.00000
     43       4.4780     -0.00000
     44       5.0630      0.00000
     45       5.6404      0.00000
     46       5.8402      0.00000
     47       6.2484      0.00000
     48       6.5855      0.00000
     49       7.0967      0.00000
     50       7.5313      0.00000
     51       7.9009      0.00000
     52       8.3148      0.00000
     53       8.8843      0.00000
     54       9.3405      0.00000

 k-point    31 :      -0.4118    0.2353    0.0000
  band No.  band energies     occupation 
      1      -5.1088      2.00000
      2      -5.0664      2.00000
      3      -4.9297      2.00000
      4      -4.9186      2.00000
      5      -4.8064      2.00000
      6      -4.7642      2.00000
      7      -4.6547      2.00000
      8      -4.6241      2.00000
      9      -4.5182      2.00000
     10      -4.4056      2.00000
     11      -4.3772      2.00000
     12      -4.3061      2.00000
     13      -4.2786      2.00000
     14      -4.1442      2.00000
     15      -3.9667      2.00000
     16      -3.9323      2.00000
     17      -3.8361      2.00000
     18      -3.6717      2.00000
     19      -3.4819      2.00000
     20      -3.4493      2.00000
     21      -3.3401      2.00000
     22      -3.2544      2.00000
     23      -3.2216      2.00000
     24      -3.1682      2.00000
     25      -3.0431      2.00000
     26      -2.9420      2.00000
     27      -2.7934      2.00000
     28      -2.7690      2.00000
     29      -2.6537      2.00000
     30      -2.5282      2.00000
     31      -2.5027      2.00000
     32      -2.4476      2.00000
     33      -2.4218      2.00000
     34      -2.3805      2.00000
     35      -2.3430      2.00000
     36       0.5643     -0.00000
     37       0.8741     -0.00000
     38       1.3629     -0.00000
     39       1.9203     -0.00000
     40       2.3598     -0.00000
     41       2.7845     -0.00000
     42       3.1929     -0.00000
     43       3.7452     -0.00000
     44       4.5333     -0.00000
     45       5.2940      0.00000
     46       5.5498      0.00000
     47       5.9492      0.00000
     48       6.0270      0.00000
     49       6.6000      0.00000
     50       7.3766      0.00000
     51       7.5087      0.00000
     52       7.9624      0.00000
     53       8.9392      0.00000
     54       9.0799      0.00000

 k-point    32 :      -0.4118    0.2941    0.0000
  band No.  band energies     occupation 
      1      -4.9498      2.00000
      2      -4.9408      2.00000
      3      -4.8694      2.00000
      4      -4.8237      2.00000
      5      -4.7760      2.00000
      6      -4.7051      2.00000
      7      -4.6351      2.00000
      8      -4.6261      2.00000
      9      -4.5008      2.00000
     10      -4.4535      2.00000
     11      -4.3981      2.00000
     12      -4.3538      2.00000
     13      -4.2891      2.00000
     14      -4.1201      2.00000
     15      -4.0215      2.00000
     16      -3.9460      2.00000
     17      -3.8549      2.00000
     18      -3.8145      2.00000
     19      -3.4544      2.00000
     20      -3.4241      2.00000
     21      -3.3963      2.00000
     22      -3.3642      2.00000
     23      -3.1968      2.00000
     24      -3.1524      2.00000
     25      -3.0819      2.00000
     26      -3.0307      2.00000
     27      -2.8621      2.00000
     28      -2.8415      2.00000
     29      -2.6996      2.00000
     30      -2.5488      2.00000
     31      -2.4696      2.00000
     32      -2.4649      2.00000
     33      -2.4528      2.00000
     34      -2.3768      2.00000
     35      -2.3475      2.00000
     36       0.5563     -0.00000
     37       0.8970     -0.00000
     38       1.4660     -0.00000
     39       2.2566     -0.00000
     40       3.2059     -0.00000
     41       3.7969     -0.00000
     42       3.9896     -0.00000
     43       4.2503     -0.00000
     44       4.4236     -0.00000
     45       4.4512     -0.00000
     46       4.9819      0.00000
     47       5.3528      0.00000
     48       5.9248      0.00000
     49       6.2577      0.00000
     50       7.0952      0.00000
     51       7.2929      0.00000
     52       8.0848      0.00000
     53       8.4991      0.00000
     54       9.2030      0.00000

 k-point    33 :      -0.3529    0.2941    0.0000
  band No.  band energies     occupation 
      1      -4.8756      2.00000
      2      -4.8656      2.00000
      3      -4.7774      2.00000
      4      -4.7500      2.00000
      5      -4.7080      2.00000
      6      -4.6551      2.00000
      7      -4.6392      2.00000
      8      -4.5925      2.00000
      9      -4.5552      2.00000
     10      -4.5146      2.00000
     11      -4.4335      2.00000
     12      -4.3910      2.00000
     13      -4.3215      2.00000
     14      -4.0518      2.00000
     15      -4.0407      2.00000
     16      -3.9529      2.00000
     17      -3.8701      2.00000
     18      -3.8118      2.00000
     19      -3.4703      2.00000
     20      -3.4395      2.00000
     21      -3.3844      2.00000
     22      -3.3528      2.00000
     23      -3.1930      2.00000
     24      -3.1154      2.00000
     25      -3.0810      2.00000
     26      -3.0361      2.00000
     27      -2.8559      2.00000
     28      -2.8481      2.00000
     29      -2.6064      2.00000
     30      -2.5632      2.00000
     31      -2.5013      2.00000
     32      -2.4752      2.00000
     33      -2.4617      2.00000
     34      -2.4231      2.00000
     35      -2.4109      2.00000
     36       1.9536     -0.00000
     37       1.9836     -0.00000
     38       2.2094     -0.00000
     39       2.5017     -0.00000
     40       2.9188     -0.00000
     41       3.2833     -0.00000
     42       3.7501     -0.00000
     43       3.8230     -0.00000
     44       4.1285     -0.00000
     45       4.3615     -0.00000
     46       4.9380      0.00000
     47       4.9491      0.00000
     48       5.6525      0.00000
     49       5.7285      0.00000
     50       6.9699      0.00000
     51       7.0711      0.00000
     52       7.9541      0.00000
     53       8.6264      0.00000
     54       8.9520      0.00000


--------------------------------------------------------------------------------------------------------


 soft charge-density along one line, spin component           1
         0         1         2         3         4         5         6         7         8         9
 total charge-density along one line
 
 pseudopotential strength for first ion, spin component:           1
 -8.739  -0.000   0.000  -0.004   0.000  -0.322   0.000  -0.000
 -0.000  -8.702  -0.000   0.000  -0.004   0.000  -0.351   0.000
  0.000  -0.000  -8.698  -0.000   0.000  -0.000   0.000  -0.355
 -0.004   0.000  -0.000  -8.702  -0.000   0.003  -0.000   0.000
  0.000  -0.004   0.000  -0.000  -8.739  -0.000   0.003  -0.000
 -0.322   0.000  -0.000   0.003  -0.000   7.198  -0.000   0.000
  0.000  -0.351   0.000  -0.000   0.003  -0.000   7.218  -0.000
 -0.000   0.000  -0.355   0.000  -0.000   0.000  -0.000   7.221
  0.003  -0.000   0.000  -0.351   0.000  -0.002  -0.000  -0.000
 -0.000   0.003  -0.000   0.000  -0.322   0.000  -0.002   0.000
  0.000   0.000  -0.007   0.000   0.000   0.000   0.000   0.002
  0.000   0.000  -0.013   0.000   0.000   0.000   0.000   0.003
 -0.000  -0.008   0.000   0.000   0.000   0.000   0.008  -0.000
  0.000  -0.000  -0.007  -0.000   0.000   0.000  -0.000   0.008
  0.000   0.000   0.000  -0.008  -0.000  -0.000   0.000  -0.000
 -0.000  -0.009   0.000  -0.000   0.000   0.000   0.010  -0.000
 -0.000  -0.000  -0.008  -0.000  -0.000   0.000  -0.000   0.009
  0.000  -0.000   0.000  -0.009  -0.000   0.000   0.000  -0.000
 total augmentation occupancy for first ion, spin component:           1
  1.916  -0.000   0.000  -0.005  -0.000  -0.012   0.000   0.000   0.005   0.000   0.000   0.000   0.000   0.000   0.006   0.000
 -0.000   1.932   0.000  -0.000  -0.005   0.000  -0.028  -0.000   0.000   0.005  -0.000   0.000   0.010   0.000   0.000  -0.008
  0.000   0.000   1.931   0.000  -0.000   0.000  -0.000  -0.023   0.000   0.000   0.002   0.012  -0.000   0.050   0.000   0.000
 -0.005  -0.000   0.000   1.932   0.000   0.005   0.000   0.000  -0.028  -0.000   0.000   0.000  -0.000   0.000   0.010   0.000
 -0.000  -0.005  -0.000   0.000   1.916   0.000   0.005  -0.000  -0.000  -0.012   0.000  -0.000   0.006  -0.000  -0.000  -0.001
 -0.012   0.000   0.000   0.005   0.000   0.013   0.000   0.000   0.000   0.000   0.000   0.000   0.000   0.000   0.002   0.000
  0.000  -0.028  -0.000   0.000   0.005   0.000   0.009  -0.000  -0.000   0.000  -0.000  -0.000   0.016  -0.000   0.000  -0.001
  0.000  -0.000  -0.023   0.000   0.000   0.000  -0.000   0.013  -0.000  -0.000  -0.042   0.002  -0.000   0.022   0.000   0.000
  0.005   0.000   0.000  -0.028  -0.000   0.000  -0.000  -0.000   0.009  -0.000   0.000   0.000   0.000   0.000   0.016   0.000
  0.000   0.005  -0.000  -0.000  -0.012   0.000   0.000  -0.000  -0.000   0.013   0.000  -0.000   0.002  -0.000  -0.000  -0.000
  0.000  -0.000   0.002   0.000   0.000   0.000  -0.000  -0.042   0.000   0.000   1.702  -0.134  -0.000   0.128   0.000   0.000
  0.000   0.000   0.012   0.000  -0.000   0.000   0.000   0.002   0.000  -0.000  -0.134   0.016   0.000  -0.022   0.000  -0.000
  0.000   0.010  -0.000  -0.000   0.006   0.000   0.016  -0.000   0.000   0.002  -0.000   0.000   0.202   0.000   0.000  -0.012
  0.000  -0.000   0.050   0.000  -0.000   0.000  -0.000   0.022   0.000  -0.000   0.128  -0.022   0.000   0.121   0.000   0.000
  0.006  -0.000   0.000   0.010  -0.000   0.002   0.000   0.000   0.016  -0.000   0.000   0.000   0.000   0.000   0.202   0.000
  0.000  -0.008   0.000   0.000  -0.001   0.000  -0.001   0.000   0.000  -0.000   0.000  -0.000  -0.012   0.000   0.000   0.001
 -0.000   0.000  -0.013   0.000   0.000   0.000  -0.000  -0.001   0.000   0.000  -0.018   0.002  -0.000  -0.008   0.000   0.000
 -0.001   0.000  -0.000  -0.008   0.000  -0.000   0.000   0.000  -0.001   0.000   0.000   0.000   0.000   0.000  -0.012   0.000


------------------------ aborting loop because EDIFF is reached ----------------------------------------


 


 total charge     
 
# of ion     s       p       d       tot
----------------------------------------
  1        0.454   0.282   9.198   9.934
  2        0.446   0.366   9.192  10.004
  3        0.447   0.372   9.185  10.005
  4        0.451   0.377   9.184  10.012
  5        0.451   0.381   9.185  10.017
  6        0.450   0.376   9.192  10.018
  7        0.456   0.288   9.200   9.944
------------------------------------------------
tot        3.155   2.442  64.336  69.933
 
    CHARGE:  cpu time    0.0320: real time    0.0325
    FORLOC:  cpu time    0.0080: real time    0.0052
    FORNL :  cpu time    0.1040: real time    0.1035
    STRESS:  cpu time    0.3360: real time    0.3379
    FORCOR:  cpu time    0.4240: real time    0.4237
    FORHAR:  cpu time    0.0080: real time    0.0094
    MIXING:  cpu time    0.0000: real time    0.0005
    OFIELD:  cpu time    0.0000: real time    0.0000

  FORCE on cell =-STRESS in cart. coord.  units (eV):
  Direction    XX          YY          ZZ          XY          YZ          ZX
  --------------------------------------------------------------------------------------
  Alpha Z   147.33090   147.33090   147.33090
  Ewald  142966.76991142966.76991************    -0.00000     0.00000     0.00000
  Hartree145439.24702145439.24702************     0.00000    -0.00000    -0.00000
  E(xc)    -450.87677  -450.87675  -450.88764    -0.00002    -0.00000    -0.00000
  Local  ************************291075.89797     0.00048    -0.00000    -0.00000
  n-local  -162.85115  -144.35775  -154.48704     8.56640    -0.57504     0.30474
  augment   662.21360   662.21402   664.48398    -0.00037    -0.00000    -0.00000
  Kinetic   647.49600   611.57007   632.79162   -13.15978    -1.30255     0.91089
  Fock        0.00000     0.00000     0.00000     0.00000     0.00000     0.00000
  -------------------------------------------------------------------------------------
  Total      -3.04412    -3.04412    -1.26686     0.00000     0.00000     0.00000
  in kB     -20.05204   -20.05204    -8.34494     0.00000     0.00000     0.00000
  external pressure =      -16.15 kB  Pullay stress =        0.00 kB


 VOLUME and BASIS-vectors are now :
 -----------------------------------------------------------------------------
  energy-cutoff  :      400.00
  volume of cell :      243.23
      direct lattice vectors                 reciprocal lattice vectors
     2.568211829  0.000000000  0.000000000     0.389375981 -0.224806327  0.000000000
     1.284105915  2.224136686  0.000000000     0.000000000  0.449612655  0.000000000
     0.000000000  0.000000000 42.581617066     0.000000000  0.000000000  0.023484312

  length of vectors
     2.568211829  2.568211829 42.581617066     0.449612655  0.449612655  0.023484312


 FORCES acting on ions
    electron-ion (+dipol)            ewald-force                    non-local-force                 convergence-correction
 -----------------------------------------------------------------------------------------------
   -.791E-06 -.457E-06 0.754E+04   0.785E-12 0.418E-12 -.753E+04   -.270E-17 -.503E-17 -.190E+01   0.136E-07 0.787E-08 0.220E+00
   -.801E-06 -.462E-06 0.504E+04   -.223E-11 -.134E-11 -.504E+04   -.113E-18 -.111E-17 -.683E+00   -.266E-07 -.154E-07 0.810E-01
   0.410E-08 0.237E-08 0.253E+04   0.222E-11 0.133E-11 -.253E+04   0.345E-20 -.678E-18 -.937E-01   0.155E-07 0.887E-08 0.294E+00
   0.474E-06 0.273E-06 0.125E+02   -.829E-13 0.464E-13 -.126E+02   -.158E-18 -.287E-18 -.215E-01   -.156E-06 -.900E-07 0.487E-01
   0.191E-06 0.110E-06 -.251E+04   -.236E-11 -.144E-11 0.251E+04   -.267E-18 0.135E-18 0.571E+00   -.827E-05 -.478E-05 -.619E+00
   -.315E-06 -.182E-06 -.504E+04   0.250E-11 0.153E-11 0.504E+04   -.560E-18 -.179E-18 0.926E+00   -.466E-05 -.269E-05 -.114E+00
   -.390E-06 -.225E-06 -.756E+04   -.892E-12 -.575E-12 0.756E+04   0.665E-17 0.498E-17 0.177E+01   0.327E-05 0.189E-05 -.102E+00
 -----------------------------------------------------------------------------------------------
   -.163E-05 -.940E-06 -.405E+00   -.610E-13 -.314E-13 -.909E-12   0.285E-17 -.216E-17 0.568E+00   -.981E-05 -.566E-05 -.192E+00
 
 
 POSITION                                       TOTAL-FORCE (eV/Angst)
 -----------------------------------------------------------------------------------
      0.00000      0.00000      0.50000         0.000000     -0.000000      0.162982
      1.28411      0.74138      2.59694        -0.000000     -0.000000     -0.037190
      2.56821      1.48276      4.69387         0.000000     -0.000000     -0.032081
      0.00000      0.00000      6.79081         0.000000     -0.000000     -0.081324
      1.28411      0.74138      8.86637        -0.000000      0.000000     -0.009545
      2.56821      1.48276     10.93826        -0.000000     -0.000000      0.004606
      0.00000     -0.00000     12.99892         0.000000      0.000000     -0.007448
 -----------------------------------------------------------------------------------
    total drift:                               -0.000011     -0.000007     -0.029316


--------------------------------------------------------------------------------------------------------



  FREE ENERGIE OF THE ION-ELECTRON SYSTEM (eV)
  ---------------------------------------------------
  free  energy   TOTEN  =        -7.39238998 eV

  energy  without entropy=       -7.39455807  energy(sigma->0) =       -7.39311268
 
 d Force = 0.4307549E-04[ 0.753E-05, 0.786E-04]  d Energy = 0.1280176E-04 0.303E-04
 d Force =-0.3411045E+01[-0.342E+01,-0.341E+01]  d Ewald  =-0.3411044E+01-0.309E-06


--------------------------------------------------------------------------------------------------------


    POTLOK:  cpu time    0.4360: real time    0.4374


--------------------------------------------------------------------------------------------------------


 Quasi-Newton relaxation of ions (Broydens 2nd method)
  g(Force)  = 0.486E-05   g(Stress)= 0.000E+00

 retain information from N=  1 steps
 eigenvalues of (default step * inverse Hessian matrix)
  average eigenvalue of G=   8.4929
 eigenvalue spectrum of G is  8.4929


--------------------------------------------------------------------------------------------------------


  
 reached required accuracy - stopping structural energy minimisation
 writing wavefunctions
     LOOP+:  cpu time    9.0246: real time    9.0943
    4ORBIT:  cpu time    0.0000: real time    0.0000
 


 total charge     
 
# of ion     s       p       d       tot
----------------------------------------
  1        0.454   0.282   9.198   9.934
  2        0.446   0.366   9.192  10.004
  3        0.447   0.372   9.185  10.005
  4        0.451   0.377   9.184  10.012
  5        0.451   0.381   9.185  10.017
  6        0.450   0.376   9.192  10.018
  7        0.456   0.288   9.200   9.944
------------------------------------------------
tot        3.155   2.442  64.336  69.933
 

 total amount of memory used by VASP on root node    36867. kBytes
========================================================================

   base      :      30000. kBytes
   nonl-proj :       2757. kBytes
   fftplans  :       1893. kBytes
   grid      :       1575. kBytes
   one-center:         15. kBytes
   wavefun   :        627. kBytes
 
  
  
 General timing and accounting informations for this job:
 ========================================================
  
                  Total CPU time used (sec):      210.717
                            User time (sec):      205.641
                          System time (sec):        5.076
                         Elapsed time (sec):      213.499
  
                   Maximum memory used (kb):      171272.
                   Average memory used (kb):           0.
  
                          Minor page faults:        43177
                          Major page faults:          111
                 Voluntary context switches:        13550
